 Gaussian 09, Revision A.01,
 Gaussian 09:  EM64L-G09RevA.01  8-May-2009

 ----------------------------------------------
 #p B3LYP/6-31G(d) opt=tight int=ultrafine freq
 ----------------------------------------------

 ---------------------------------------------
 using B3LYP/6-31G(d) to do opt and freq calc.
 ---------------------------------------------
 Symbolic Z-matrix:
 Charge =  0 Multiplicity = 1

 SCF Done:  E(RB3LYP) =  -237.082512841     A.U. after   11 cycles
 SCF Done:  E(RB3LYP) =  -237.082512846     A.U. after   12 cycles
 SCF Done:  E(RB3LYP) =  -237.082512847     A.U. after   12 cycles
 SCF Done:  E(RB3LYP) =  -237.082512846     A.U. after   12 cycles
 Optimization completed.
    -- Stationary point found.
 Normal termination of Gaussian 09 at Sun Oct  4 11:30:41 2015.

 --------------------------------------------------------------------
 #P Geom=AllCheck Guess=TCheck SCRF=Check GenChk RB3LYP/6-31G(d) Freq
 --------------------------------------------------------------------

 using B3LYP/6-31G(d) to do opt and freq calc.
 ---------------------------------------------
 Redundant internal coordinates taken from checkpoint file:
 /state/partition1/Gau-15953.chk
 Charge =  0 Multiplicity = 1

                         Standard orientation:
 ---------------------------------------------------------------------
 Center     Atomic      Atomic             Coordinates (Angstroms)
 Number     Number       Type             X           Y           Z
 ---------------------------------------------------------------------
      1          6           0        0.000010    1.518429    1.254759
      2          1           0        0.349148    1.042070    2.175866
      3          1           0       -1.085003    1.664723    1.342944
      4          1           0        0.462302    2.511266    1.204222
      5          6           0        0.342970    0.696651   -0.000006
      6          1           0        1.431409    0.522493   -0.000015
      7          6           0       -0.342970   -0.696651   -0.000006
      8          1           0       -1.431409   -0.522493   -0.000015
      9          6           0        0.000010   -1.518447   -1.254754
     10          1           0        1.085024   -1.664732   -1.342928
     11          1           0       -0.462273   -2.511288   -1.204204
     12          1           0       -0.349127   -1.042109   -2.175873
     13          6           0       -0.000010    1.518447   -1.254754
     14          1           0        0.349127    1.042109   -2.175873
     15          1           0       -1.085024    1.664732   -1.342928
     16          1           0        0.462273    2.511288   -1.204204
     17          6           0       -0.000010   -1.518429    1.254759
     18          1           0        1.085003   -1.664723    1.342944
     19          1           0       -0.349148   -1.042070    2.175866
     20          1           0       -0.462302   -2.511266    1.204222
 ---------------------------------------------------------------------

 SCF Done:  E(RB3LYP) =  -237.082512846     A.U. after    1 cycles

 The electronic state is 1-A.
 Alpha  occ. eigenvalues --  -10.18292 -10.18273 -10.16768 -10.16768 -10.16767
 Alpha  occ. eigenvalues --  -10.16767  -0.81124  -0.74151  -0.68616  -0.66279
 Alpha  occ. eigenvalues --   -0.60291  -0.54324  -0.45147  -0.44959  -0.42539
 Alpha  occ. eigenvalues --   -0.41624  -0.38760  -0.38358  -0.37339  -0.35833
 Alpha  occ. eigenvalues --   -0.35053  -0.33586  -0.31392  -0.30732  -0.30209
 Alpha virt. eigenvalues --    0.08375   0.11728   0.12948   0.13407   0.14207
 Alpha virt. eigenvalues --    0.16116   0.16417   0.17884   0.17994   0.18740
 Alpha virt. eigenvalues --    0.18869   0.20583   0.20629   0.23734   0.23787

 Mulliken atomic charges:
              1
     1  C   -0.450203
     2  H    0.144947
     3  H    0.137180
     4  H    0.138206
     5  C   -0.054904
     6  H    0.114644
     7  C   -0.054904
     8  H    0.114644
     9  C   -0.450203
    10  H    0.137181
    11  H    0.138206
    12  H    0.144947
    13  C   -0.450203
    14  H    0.144947
    15  H    0.137181
    16  H    0.138206
    17  C   -0.450203
    18  H    0.137180
    19  H    0.144947
    20  H    0.138206
 Sum of Mulliken atomic charges =   0.00000

 Dipole moment (field-independent basis, Debye):
    X=              0.0000    Y=              0.0000    Z=              0.0000  Tot=              0.0000
 Quadrupole moment (field-independent basis, Debye-Ang):
   XX=            -41.1501   YY=            -41.8650   ZZ=            -42.0234
   XY=              0.2361   XZ=              0.0000   YZ=              0.0000

  Exact polarizability:  57.699   0.687  70.080   0.000   0.000  65.815
 Approx polarizability:  86.597   0.466  87.029   0.000   0.000  84.392

                     1                      2                      3
                     A                      A                      B
 Frequencies --    60.2573               202.1521               205.4556
 Red. masses --     2.2896                 1.4146                 1.0276
 Frc consts  --     0.0049                 0.0341                 0.0256
 IR Inten    --     0.0002                 0.0262                 0.0000

                     4                      5                      6
                     B                      A                      A
 Frequencies --   222.1776               241.4253               313.6892
 Red. masses --     1.0586                 1.1993                 1.6247
 Frc consts  --     0.0308                 0.0412                 0.0942
 IR Inten    --     0.0361                 0.0000                 0.0030

                     7                      8                      9
                     B                      A                      B
 Frequencies --   352.3259               392.2288               412.3273
 Red. masses --     2.0285                 1.9324                 2.0005
 Frc consts  --     0.1484                 0.1752                 0.2004
 IR Inten    --     0.1483                 0.0000                 0.0578

                    10                     11                     12
                     B                      A                      A
 Frequencies --   427.6870               500.2622               760.5500
 Red. masses --     2.8113                 2.2568                 2.1256
 Frc consts  --     0.3030                 0.3328                 0.7244
 IR Inten    --     0.0000                 0.0000                 0.0000

                    13                     14                     15
                     B                      B                      A
 Frequencies --   879.8448               935.8113               940.8936
 Red. masses --     2.5506                 1.1600                 1.1765
 Frc consts  --     1.1633                 0.5985                 0.6136
 IR Inten    --     1.9012                 0.0000                 2.0068

                    16                     17                     18
                     A                      B                      A
 Frequencies --   955.4841               969.2784               982.5897
 Red. masses --     1.9606                 1.5109                 1.4037
 Frc consts  --     1.0546                 0.8363                 0.7985
 IR Inten    --     0.0000                 0.0000                 0.3021

                    19                     20                     21
                     B                      A                      B
 Frequencies --  1014.4065              1088.3460              1183.7674
 Red. masses --     1.1789                 2.4184                 2.0134
 Frc consts  --     0.7148                 1.6878                 1.6623
 IR Inten    --     5.6812                 2.2101                 0.0000

                    22                     23                     24
                     B                      A                      A
 Frequencies --  1190.2958              1206.4271              1225.2598
 Red. masses --     1.8620                 1.6601                 2.0361
 Frc consts  --     1.5543                 1.4236                 1.8010
 IR Inten    --     8.2767                 0.0000                 0.0000

                    25                     26                     27
                     B                      A                      B
 Frequencies --  1325.8579              1358.1884              1373.1183
 Red. masses --     1.3804                 1.2786                 1.4232
 Frc consts  --     1.4297                 1.3896                 1.5810
 IR Inten    --     8.4898                 5.5804                 0.0000

                    28                     29                     30
                     A                      B                      A
 Frequencies --  1397.7265              1426.5276              1432.4954
 Red. masses --     1.4446                 1.2825                 1.2285
 Frc consts  --     1.6628                 1.5377                 1.4852
 IR Inten    --     0.0000                 0.0000                 5.3624

                    31                     32                     33
                     B                      A                      A
 Frequencies --  1445.5639              1452.5362              1514.6817
 Red. masses --     1.2362                 1.2112                 1.0510
 Frc consts  --     1.5220                 1.5057                 1.4207
 IR Inten    --     9.6228                 0.0000                 0.9850

                    34                     35                     36
                     B                      B                      B
 Frequencies --  1518.0321              1522.7008              1533.5190
 Red. masses --     1.0433                 1.0498                 1.0421
 Frc consts  --     1.4166                 1.4342                 1.4439
 IR Inten    --     0.0000                 0.0000                12.6976

                    37                     38                     39
                     A                      A                      B
 Frequencies --  1535.0854              1537.9081              1540.2693
 Red. masses --     1.0687                 1.0421                 1.0457
 Frc consts  --     1.4838                 1.4521                 1.4617
 IR Inten    --     0.0000                 4.1131                15.5374

                    40                     41                     42
                     A                      A                      B
 Frequencies --  1556.5854              2988.7990              3002.7100
 Red. masses --     1.0488                 1.0804                 1.0851
 Frc consts  --     1.4972                 5.6862                 5.7641
 IR Inten    --     0.0000                 0.0000                39.5662

                    43                     44                     45
                     B                      A                      B
 Frequencies --  3036.6126              3037.5091              3041.6838
 Red. masses --     1.0381                 1.0399                 1.0385
 Frc consts  --     5.6399                 5.6528                 5.6611
 IR Inten    --     0.0000                41.5978                70.4027

                    46                     47                     48
                     A                      A                      B
 Frequencies --  3044.0920              3096.3066              3096.3825
 Red. masses --     1.0409                 1.1004                 1.1006
 Frc consts  --     5.6829                 6.2159                 6.2171
 IR Inten    --     0.0000                 0.9046                 0.0000

                    49                     50                     51
                     A                      B                      B
 Frequencies --  3103.0824              3104.4360              3116.7231
 Red. masses --     1.0994                 1.0993                 1.1013
 Frc consts  --     6.2374                 6.2423                 6.3033
 IR Inten    --     0.0000               153.8334                 0.0000

                    52                     53                     54
                     B                      A                      A
 Frequencies --  3119.7987              3130.6203              3130.9628
 Red. masses --     1.1008                 1.0980                 1.0980
 Frc consts  --     6.3124                 6.3406                 6.3418
 IR Inten    --    82.6730                67.4639                 0.0001

 - Thermochemistry -
 -------------------
 Temperature   298.150 Kelvin.  Pressure   1.00000 Atm.
 Atom     1 has atomic number  6 and mass  12.00000

 Molecular mass:    86.10955 amu.
 Principal axes and moments of inertia in atomic units:
                           1         2         3
     Eigenvalues --   430.59483 631.70150 970.84219
           X            0.04040   0.00000   0.99918
           Y            0.99918   0.00000  -0.04040
           Z            0.00000   1.00000   0.00000
 This molecule is an asymmetric top.
 Rotational symmetry number  2.
 Rotational temperatures (Kelvin)      0.20115     0.13711     0.08922
 Rotational constants (GHZ):           4.19127     2.85695     1.85894
 Zero-point vibrational energy     497547.6 (Joules/Mol)
                                  118.91672 (Kcal/Mol)
 Warning -- explicit consideration of  11 degrees of freedom as
           vibrations may cause significant error
 Vibrational temperatures:     86.70   290.85   295.60   319.66   347.36
          (Kelvin)            451.33   506.92   564.33   593.25   615.35
                              719.76  1094.26  1265.90  1346.42  1353.73
                             1374.73  1394.57  1413.73  1459.50  1565.89
                             1703.18  1712.57  1735.78  1762.87  1907.61
                             1954.13  1975.61  2011.01  2052.45  2061.04
                             2079.84  2089.87  2179.29  2184.11  2190.82
                             2206.39  2208.64  2212.70  2216.10  2239.58
                             4300.21  4320.22  4369.00  4370.29  4376.30
                             4379.76  4454.89  4455.00  4464.64  4466.59
                             4484.26  4488.69  4504.26  4504.75

 Zero-point correction=                           0.189506 (Hartree/Particle)
 Thermal correction to Energy=                    0.197760
 Thermal correction to Enthalpy=                  0.198704
 Thermal correction to Gibbs Free Energy=         0.158425
 Sum of electronic and zero-point Energies=           -236.893007
 Sum of electronic and thermal Energies=              -236.884753
 Sum of electronic and thermal Enthalpies=            -236.883809
 Sum of electronic and thermal Free Energies=         -236.924088

                     E (Thermal)             CV                S
                      KCal/Mol        Cal/Mol-Kelvin    Cal/Mol-Kelvin
 Total                  124.096             30.235             84.774
 Electronic               0.000              0.000              0.000
 Translational            0.889              2.981             39.272
 Rotational               0.889              2.981             25.693
 Vibrational            122.319             24.274             19.809
 Vibration     1          0.597              1.973              4.449
 Vibration     2          0.639              1.837              2.113
 Vibration     3          0.640              1.832              2.084
 Vibration     4          0.648              1.807              1.941
 Vibration     5          0.658              1.777              1.792
 Vibration     6          0.702              1.648              1.343
 Vibration     7          0.729              1.570              1.156
 Vibration     8          0.760              1.487              0.992
 Vibration     9          0.776              1.443              0.918
 Vibration    10          0.789              1.410              0.866
 Vibration    11          0.856              1.249              0.657

 Optimization completed.
    -- Stationary point found.
 Normal termination of Gaussian 09 at Sun Oct  4 11:34:48 2015.
