 Gaussian 09, Revision A.01,
 Gaussian 09:  EM64L-G09RevA.01  8-May-2009

 ----------------------------------------------
 #p B3LYP/6-31G(d) opt=tight int=ultrafine freq
 ----------------------------------------------

 ---------------------------------------------
 using B3LYP/6-31G(d) to do opt and freq calc.
 ---------------------------------------------
 Symbolic Z-matrix:
 Charge =  0 Multiplicity = 1

 SCF Done:  E(RB3LYP) =  -237.084739558     A.U. after   12 cycles
 SCF Done:  E(RB3LYP) =  -237.084739836     A.U. after    6 cycles
 SCF Done:  E(RB3LYP) =  -237.084739908     A.U. after    6 cycles
 SCF Done:  E(RB3LYP) =  -237.084739913     A.U. after    5 cycles
 SCF Done:  E(RB3LYP) =  -237.084739914     A.U. after    4 cycles
 Optimization completed.
    -- Stationary point found.
 Normal termination of Gaussian 09 at Sun Oct  4 11:31:31 2015.

 --------------------------------------------------------------------
 #P Geom=AllCheck Guess=TCheck SCRF=Check GenChk RB3LYP/6-31G(d) Freq
 --------------------------------------------------------------------

 using B3LYP/6-31G(d) to do opt and freq calc.
 ---------------------------------------------
 Redundant internal coordinates taken from checkpoint file:
 /state/partition1/Gau-15954.chk
 Charge =  0 Multiplicity = 1

                         Standard orientation:
 ---------------------------------------------------------------------
 Center     Atomic      Atomic             Coordinates (Angstroms)
 Number     Number       Type             X           Y           Z
 ---------------------------------------------------------------------
      1          6           0        2.158797   -1.038262    0.033294
      2          1           0        1.927533   -2.029222   -0.375554
      3          1           0        2.248004   -1.140761    1.122907
      4          1           0        3.140068   -0.736400   -0.352089
      5          6           0        1.075129   -0.013247   -0.333943
      6          1           0        1.027373    0.044919   -1.432844
      7          6           0       -0.305208   -0.482864    0.167098
      8          1           0       -0.293645   -0.515801    1.267925
      9          1           0       -0.461374   -1.520579   -0.163436
     10          6           0       -1.498621    0.360991   -0.301923
     11          1           0       -1.481223    0.432726   -1.399129
     12          1           0       -1.403322    1.388403    0.072512
     13          6           0       -2.846192   -0.213221    0.149098
     14          1           0       -2.906213   -0.270618    1.243053
     15          1           0       -3.681827    0.405542   -0.197689
     16          1           0       -2.996731   -1.226889   -0.242561
     17          6           0        1.452038    1.379337    0.194904
     18          1           0        0.736890    2.147561   -0.117998
     19          1           0        1.487561    1.382710    1.292643
     20          1           0        2.441246    1.682004   -0.168912
 ---------------------------------------------------------------------

 SCF Done:  E(RB3LYP) =  -237.084739914     A.U. after    1 cycles

 The electronic state is 1-A.
 Alpha  occ. eigenvalues --  -10.18306 -10.17579 -10.17248 -10.17016 -10.16811
 Alpha  occ. eigenvalues --  -10.16807  -0.80550  -0.75519  -0.67622  -0.66928
 Alpha  occ. eigenvalues --   -0.58798  -0.55159  -0.46603  -0.43950  -0.43383
 Alpha  occ. eigenvalues --   -0.41205  -0.39201  -0.37763  -0.37395  -0.35934
 Alpha  occ. eigenvalues --   -0.34337  -0.32923  -0.31443  -0.31140  -0.30443
 Alpha virt. eigenvalues --    0.08741   0.11080   0.12371   0.13037   0.14994
 Alpha virt. eigenvalues --    0.15863   0.16481   0.16976   0.17946   0.18665
 Alpha virt. eigenvalues --    0.19452   0.19896   0.21712   0.22067   0.23745

 Mulliken atomic charges:
              1
     1  C   -0.441887
     2  H    0.138554
     3  H    0.137739
     4  H    0.138191
     5  C   -0.065054
     6  H    0.118611
     7  C   -0.238599
     8  H    0.121984
     9  H    0.123447
    10  C   -0.253042
    11  H    0.128850
    12  H    0.134725
    13  C   -0.441782
    14  H    0.141218
    15  H    0.140753
    16  H    0.140799
    17  C   -0.444441
    18  H    0.144235
    19  H    0.136908
    20  H    0.138793
 Sum of Mulliken atomic charges =   0.00000

 Dipole moment (field-independent basis, Debye):
    X=             -0.0159    Y=              0.0332    Z=             -0.0783  Tot=              0.0865
 Quadrupole moment (field-independent basis, Debye-Ang):
   XX=            -42.1059   YY=            -41.7336   ZZ=            -41.1457
   XY=             -0.0422   XZ=             -0.0428   YZ=              0.1559

  Exact polarizability:  74.301  -0.106  62.665  -0.018   0.020  58.393
 Approx polarizability:  85.690   0.187  84.672   0.034   0.307  85.965

                     1                      2                      3
                     A                      A                      A
 Frequencies --    75.0132               110.9050               180.5602
 Red. masses --     1.6660                 2.1817                 2.4484
 Frc consts  --     0.0055                 0.0158                 0.0470
 IR Inten    --     0.0050                 0.0136                 0.0187

                     4                      5                      6
                     A                      A                      A
 Frequencies --   227.9770               248.2115               258.0476
 Red. masses --     1.0473                 1.0964                 1.1237
 Frc consts  --     0.0321                 0.0398                 0.0441
 IR Inten    --     0.0125                 0.0028                 0.0033

                     7                      8                      9
                     A                      A                      A
 Frequencies --   320.4742               377.1947               442.5712
 Red. masses --     2.4470                 2.2869                 2.3132
 Frc consts  --     0.1481                 0.1917                 0.2670
 IR Inten    --     0.0096                 0.1263                 0.2091

                    10                     11                     12
                     A                      A                      A
 Frequencies --   447.6594               751.1773               820.6646
 Red. masses --     2.1972                 1.1166                 2.3649
 Frc consts  --     0.2594                 0.3712                 0.9384
 IR Inten    --     0.0246                 2.5691                 0.4783

                    13                     14                     15
                     A                      A                      A
 Frequencies --   872.4638               906.9628               939.4602
 Red. masses --     1.2571                 1.8981                 1.1776
 Frc consts  --     0.5638                 0.9199                 0.6123
 IR Inten    --     1.0124                 0.5868                 1.5624

                    16                     17                     18
                     A                      A                      A
 Frequencies --   971.0622               977.5307              1035.6615
 Red. masses --     1.7426                 1.5724                 1.3055
 Frc consts  --     0.9681                 0.8852                 0.8250
 IR Inten    --     1.8686                 0.9134                 0.2312

                    19                     20                     21
                     A                      A                      A
 Frequencies --  1056.5548              1089.4773              1177.7859
 Red. masses --     2.2529                 2.0038                 2.1303
 Frc consts  --     1.4817                 1.4013                 1.7411
 IR Inten    --     0.2561                 0.5242                 2.1515

                    22                     23                     24
                     A                      A                      A
 Frequencies --  1204.9218              1217.4354              1286.2356
 Red. masses --     1.7462                 1.9764                 1.3594
 Frc consts  --     1.4937                 1.7259                 1.3251
 IR Inten    --     3.3152                 0.2907                 2.4285

                    25                     26                     27
                     A                      A                      A
 Frequencies --  1317.0537              1344.9847              1375.6874
 Red. masses --     1.2538                 1.1119                 1.3911
 Frc consts  --     1.2814                 1.1851                 1.5511
 IR Inten    --     3.3023                 0.4055                 0.9809

                    28                     29                     30
                     A                      A                      A
 Frequencies --  1389.1967              1419.2862              1429.3991
 Red. masses --     1.3436                 1.5562                 1.2621
 Frc consts  --     1.5277                 1.8470                 1.5193
 IR Inten    --     3.5132                 1.8773                 4.1362

                    31                     32                     33
                     A                      A                      A
 Frequencies --  1440.8875              1449.0043              1509.5638
 Red. masses --     1.2443                 1.2390                 1.0728
 Frc consts  --     1.5221                 1.5327                 1.4404
 IR Inten    --     1.5802                 3.2177                 0.0858

                    34                     35                     36
                     A                      A                      A
 Frequencies --  1520.3064              1523.2223              1526.3568
 Red. masses --     1.0455                 1.0556                 1.0610
 Frc consts  --     1.4237                 1.4430                 1.4564
 IR Inten    --     0.6020                 1.2448                 0.9835

                    37                     38                     39
                     A                      A                      A
 Frequencies --  1529.7917              1535.5298              1538.8874
 Red. masses --     1.0412                 1.0542                 1.0681
 Frc consts  --     1.4356                 1.4645                 1.4903
 IR Inten    --     7.4660                 2.2008                 2.6870

                    40                     41                     42
                     A                      A                      A
 Frequencies --  1542.6344              3000.5329              3008.0751
 Red. masses --     1.0610                 1.0789                 1.0630
 Frc consts  --     1.4876                 5.7233                 5.6673
 IR Inten    --     9.5885                 6.6833                24.0096

                    43                     44                     45
                     A                      A                      A
 Frequencies --  3027.8202              3033.9258              3039.1099
 Red. masses --     1.0668                 1.0365                 1.0705
 Frc consts  --     5.7623                 5.6213                 5.8255
 IR Inten    --    32.5639                33.8297                37.2624

                    46                     47                     48
                     A                      A                      A
 Frequencies --  3039.7087              3040.7181              3068.8749
 Red. masses --     1.0594                 1.0382                 1.1012
 Frc consts  --     5.7674                 5.6556                 6.1102
 IR Inten    --    25.6811                17.6426                32.7972

                    49                     50                     51
                     A                      A                      A
 Frequencies --  3095.9726              3102.0384              3105.5579
 Red. masses --     1.1011                 1.1008                 1.1027
 Frc consts  --     6.2185                 6.2412                 6.2662
 IR Inten    --     5.0473                52.4424                76.8057

                    52                     53                     54
                     A                      A                      A
 Frequencies --  3107.0131              3109.7448              3116.6647
 Red. masses --     1.1023                 1.1018                 1.1004
 Frc consts  --     6.2693                 6.2779                 6.2976
 IR Inten    --    58.2112                39.5198                47.1407

 - Thermochemistry -
 -------------------
 Temperature   298.150 Kelvin.  Pressure   1.00000 Atm.
 Atom     1 has atomic number  6 and mass  12.00000

 Molecular mass:    86.10955 amu.
 Principal axes and moments of inertia in atomic units:
                           1         2         3
     Eigenvalues --   273.947311067.152101240.29284
           X            1.00000   0.00106   0.00059
           Y           -0.00106   1.00000  -0.00211
           Z           -0.00059   0.00211   1.00000
 This molecule is an asymmetric top.
 Rotational symmetry number  1.
 Rotational temperatures (Kelvin)      0.31617     0.08116     0.06983
 Rotational constants (GHZ):           6.58791     1.69118     1.45509
 Zero-point vibrational energy     498146.3 (Joules/Mol)
                                  119.05982 (Kcal/Mol)
 Warning -- explicit consideration of  10 degrees of freedom as
           vibrations may cause significant error
 Vibrational temperatures:    107.93   159.57   259.79   328.01   357.12
          (Kelvin)            371.27   461.09   542.70   636.76   644.08
                             1080.78  1180.75  1255.28  1304.92  1351.67
                             1397.14  1406.45  1490.08  1520.14  1567.51
                             1694.57  1733.61  1751.62  1850.60  1894.94
                             1935.13  1979.30  1998.74  2042.03  2056.58
                             2073.11  2084.79  2171.92  2187.38  2191.57
                             2196.08  2201.03  2209.28  2214.11  2219.50
                             4317.09  4327.94  4356.35  4365.14  4372.60
                             4373.46  4374.91  4415.42  4454.41  4463.14
                             4468.20  4470.29  4474.22  4484.18

 Zero-point correction=                           0.189734 (Hartree/Particle)
 Thermal correction to Energy=                    0.198055
 Thermal correction to Enthalpy=                  0.198999
 Thermal correction to Gibbs Free Energy=         0.157563
 Sum of electronic and zero-point Energies=           -236.895006
 Sum of electronic and thermal Energies=              -236.886685
 Sum of electronic and thermal Enthalpies=            -236.885741
 Sum of electronic and thermal Free Energies=         -236.927177

                     E (Thermal)             CV                S
                      KCal/Mol        Cal/Mol-Kelvin    Cal/Mol-Kelvin
 Total                  124.281             29.717             87.210
 Electronic               0.000              0.000              0.000
 Translational            0.889              2.981             39.272
 Rotational               0.889              2.981             27.386
 Vibrational            122.504             23.756             20.552
 Vibration     1          0.599              1.966              4.017
 Vibration     2          0.607              1.940              3.253
 Vibration     3          0.630              1.866              2.323
 Vibration     4          0.651              1.798              1.895
 Vibration     5          0.662              1.766              1.743
 Vibration     6          0.667              1.749              1.675
 Vibration     7          0.706              1.634              1.308
 Vibration     8          0.748              1.519              1.050
 Vibration     9          0.802              1.377              0.819
 Vibration    10          0.807              1.366              0.803

 Normal termination of Gaussian 09 at Sun Oct  4 11:37:59 2015.
