 Gaussian 09, Revision A.01,
 Gaussian 09:  EM64L-G09RevA.01  8-May-2009

 ----------------------------------------------
 #p B3LYP/6-31G(d) opt=tight int=ultrafine freq
 ----------------------------------------------

 ---------------------------------------------
 using B3LYP/6-31G(d) to do opt and freq calc.
 ---------------------------------------------
 Symbolic Z-matrix:
 Charge =  0 Multiplicity = 1

 SCF Done:  E(RB3LYP) =  -237.085480001     A.U. after   11 cycles
 SCF Done:  E(RB3LYP) =  -237.085480297     A.U. after    6 cycles
 SCF Done:  E(RB3LYP) =  -237.085480316     A.U. after    5 cycles
 Optimization completed.
    -- Stationary point found.
 Normal termination of Gaussian 09 at Sun Oct  4 11:29:25 2015.

 --------------------------------------------------------------------
 #P Geom=AllCheck Guess=TCheck SCRF=Check GenChk RB3LYP/6-31G(d) Freq
 --------------------------------------------------------------------

 using B3LYP/6-31G(d) to do opt and freq calc.
 ---------------------------------------------
 Redundant internal coordinates taken from checkpoint file:
 /state/partition1/Gau-15951.chk
 Charge =  0 Multiplicity = 1

                         Standard orientation:
 ---------------------------------------------------------------------
 Center     Atomic      Atomic             Coordinates (Angstroms)
 Number     Number       Type             X           Y           Z
 ---------------------------------------------------------------------
      1          6           0       -1.414227    2.905083    0.000000
      2          1           0       -0.900497    3.301499   -0.884602
      3          1           0       -0.900497    3.301499    0.884602
      4          1           0       -2.434236    3.306282    0.000000
      5          6           0       -1.414227    1.372954    0.000000
      6          1           0       -1.965398    1.006883    0.877995
      7          1           0       -1.965398    1.006883   -0.877995
      8          6           0       -0.004893    0.766918    0.000000
      9          1           0        0.546827    1.134100    0.878477
     10          1           0        0.546827    1.134100   -0.878477
     11          6           0        0.004893   -0.766918    0.000000
     12          1           0       -0.546827   -1.134100   -0.878477
     13          1           0       -0.546827   -1.134100    0.878477
     14          6           0        1.414227   -1.372954    0.000000
     15          1           0        1.965398   -1.006883    0.877995
     16          1           0        1.965398   -1.006883   -0.877995
     17          6           0        1.414227   -2.905083    0.000000
     18          1           0        0.900497   -3.301499   -0.884602
     19          1           0        2.434236   -3.306282    0.000000
     20          1           0        0.900497   -3.301499    0.884602
 ---------------------------------------------------------------------

 SCF Done:  E(RB3LYP) =  -237.085480316     A.U. after    1 cycles

 The electronic state is 1-A.
 Alpha  occ. eigenvalues --  -10.17591 -10.17591 -10.17369 -10.17348 -10.16989
 Alpha  occ. eigenvalues --  -10.16989  -0.79888  -0.76126  -0.70301  -0.63362
 Alpha  occ. eigenvalues --   -0.57765  -0.57014  -0.47316  -0.44030  -0.42896
 Alpha  occ. eigenvalues --   -0.41548  -0.39476  -0.37566  -0.37363  -0.35093
 Alpha  occ. eigenvalues --   -0.33674  -0.32372  -0.32021  -0.31661  -0.30429
 Alpha virt. eigenvalues --    0.09278   0.10458   0.12310   0.13238   0.13694
 Alpha virt. eigenvalues --    0.16287   0.16860   0.16943   0.18623   0.19181
 Alpha virt. eigenvalues --    0.19436   0.20005   0.20559   0.20671   0.22952

 Mulliken atomic charges:
              1
     1  C   -0.441230
     2  H    0.140807
     3  H    0.140807
     4  H    0.140920
     5  C   -0.246719
     6  H    0.129568
     7  H    0.129568
     8  C   -0.245279
     9  H    0.125780
    10  H    0.125780
    11  C   -0.245279
    12  H    0.125780
    13  H    0.125780
    14  C   -0.246719
    15  H    0.129568
    16  H    0.129568
    17  C   -0.441230
    18  H    0.140807
    19  H    0.140920
    20  H    0.140807
 Sum of Mulliken atomic charges =   0.00000

 Dipole moment (field-independent basis, Debye):
    X=              0.0000    Y=              0.0000    Z=              0.0000  Tot=              0.0000
 Quadrupole moment (field-independent basis, Debye-Ang):
   XX=            -41.5783   YY=            -42.5259   ZZ=            -40.7720
   XY=              0.1098   XZ=              0.0000   YZ=              0.0000

  Exact polarizability:  64.639  -7.966  73.870   0.000   0.000  58.572
 Approx polarizability:  84.716  -0.267  83.779   0.000   0.000  86.014

                     1                      2                      3
                     A                      A                      B
 Frequencies --    74.4566               100.7910               130.4694
 Red. masses --     2.3052                 1.6005                 2.7808
 Frc consts  --     0.0075                 0.0096                 0.0279
 IR Inten    --     0.0082                 0.0000                 0.0114

                     4                      5                      6
                     B                      B                      A
 Frequencies --   150.4213               243.1681               254.7897
 Red. masses --     2.0177                 1.0849                 1.1404
 Frc consts  --     0.0269                 0.0378                 0.0436
 IR Inten    --     0.0000                 0.0000                 0.0023

                     7                      8                      9
                     A                      A                      B
 Frequencies --   296.2101               366.3250               465.3698
 Red. masses --     2.6266                 3.4130                 2.5728
 Frc consts  --     0.1358                 0.2699                 0.3283
 IR Inten    --     0.0000                 0.0000                 0.0888

                    10                     11                     12
                     A                      B                      A
 Frequencies --   738.4438               752.9648               814.6413
 Red. masses --     1.0617                 1.0947                 1.1501
 Frc consts  --     0.3411                 0.3657                 0.4497
 IR Inten    --     4.4406                 0.0000                 1.3519

                    13                     14                     15
                     B                      A                      B
 Frequencies --   896.5623               914.5816               916.6092
 Red. masses --     2.2655                 1.6334                 1.1697
 Frc consts  --     1.0729                 0.8050                 0.5790
 IR Inten    --     2.6889                 0.0000                 0.0000

                    16                     17                     18
                     A                      A                      B
 Frequencies --  1020.0196              1023.5328              1060.7306
 Red. masses --     3.8347                 1.1133                 2.5138
 Frc consts  --     2.3507                 0.6872                 1.6665
 IR Inten    --     0.0000                 0.4668                 0.2954

                    19                     20                     21
                     A                      B                      A
 Frequencies --  1074.4994              1086.3073              1169.2122
 Red. masses --     2.1927                 1.7409                 2.4351
 Frc consts  --     1.4916                 1.2104                 1.9614
 IR Inten    --     0.0000                 4.5344                 0.0000

                    22                     23                     24
                     B                      A                      B
 Frequencies --  1222.1324              1267.9653              1287.0298
 Red. masses --     1.8558                 1.4025                 1.3071
 Frc consts  --     1.6331                 1.3285                 1.2757
 IR Inten    --     0.0000                 0.0000                 6.2295

                    25                     26                     27
                     B                      B                      A
 Frequencies --  1323.7653              1344.9327              1350.9074
 Red. masses --     1.2045                 1.0442                 1.1073
 Frc consts  --     1.2436                 1.1128                 1.1906
 IR Inten    --     0.0000                 0.0000                 0.7716

                    28                     29                     30
                     A                      B                      A
 Frequencies --  1358.8013              1410.1367              1425.4856
 Red. masses --     1.3629                 1.4772                 1.6449
 Frc consts  --     1.4826                 1.7307                 1.9694
 IR Inten    --     0.0000                 3.0196                 0.0000

                    31                     32                     33
                     B                      A                      A
 Frequencies --  1440.5266              1442.0197              1514.9183
 Red. masses --     1.2568                 1.2443                 1.0746
 Frc consts  --     1.5366                 1.5244                 1.4531
 IR Inten    --     2.6330                 0.0000                 0.0000

                    34                     35                     36
                     B                      A                      A
 Frequencies --  1514.9545              1521.5814              1529.7521
 Red. masses --     1.0685                 1.0599                 1.0413
 Frc consts  --     1.4449                 1.4458                 1.4357
 IR Inten    --     0.5462                 0.0000                11.4871

                    37                     38                     39
                     B                      B                      A
 Frequencies --  1529.9362              1530.2413              1539.0259
 Red. masses --     1.0408                 1.0668                 1.0779
 Frc consts  --     1.4354                 1.4718                 1.5043
 IR Inten    --     0.0000                 1.4948                 0.0000

                    40                     41                     42
                     B                      A                      B
 Frequencies --  1544.4820              3009.8112              3012.8096
 Red. masses --     1.0914                 1.0582                 1.0586
 Frc consts  --     1.5339                 5.6482                 5.6616
 IR Inten    --     4.6844                 0.0000                 7.3447

                    43                     44                     45
                     A                      B                      B
 Frequencies --  3024.1525              3028.3776              3030.5034
 Red. masses --     1.0601                 1.0599                 1.1000
 Frc consts  --     5.7124                 5.7269                 5.9520
 IR Inten    --     0.0000               108.5363                 0.0000

                    46                     47                     48
                     B                      A                      A
 Frequencies --  3040.4979              3040.7580              3040.9288
 Red. masses --     1.0359                 1.0358                 1.1025
 Frc consts  --     5.6425                 5.6429                 6.0066
 IR Inten    --    83.4634                 0.0000                 0.0371

                    49                     50                     51
                     B                      A                      B
 Frequencies --  3057.0572              3070.5191              3104.7888
 Red. masses --     1.1048                 1.1055                 1.1029
 Frc consts  --     6.0834                 6.1408                 6.2640
 IR Inten    --     0.0000                85.3865                 0.0000

                    52                     53                     54
                     A                      B                      A
 Frequencies --  3105.5389              3109.8177              3109.8226
 Red. masses --     1.1028                 1.1019                 1.1018
 Frc consts  --     6.2662                 6.2785                 6.2782
 IR Inten    --   135.8208                89.1019                 0.0000

 - Thermochemistry -
 -------------------
 Temperature   298.150 Kelvin.  Pressure   1.00000 Atm.
 Atom     1 has atomic number  6 and mass  12.00000

 Molecular mass:    86.10955 amu.
 Principal axes and moments of inertia in atomic units:
                           1         2         3
     Eigenvalues --   123.748731604.253711661.05748
           X           -0.49774   0.86732   0.00000
           Y            0.86732   0.49774   0.00000
           Z            0.00000   0.00000   1.00000
 This molecule is an asymmetric top.
 Rotational symmetry number  2.
 Rotational temperatures (Kelvin)      0.69992     0.05399     0.05214
 Rotational constants (GHZ):          14.58392     1.12497     1.08650
 Zero-point vibrational energy     499046.6 (Joules/Mol)
                                  119.27501 (Kcal/Mol)
 Warning -- explicit consideration of   9 degrees of freedom as
           vibrations may cause significant error
 Vibrational temperatures:    107.13   145.02   187.72   216.42   349.86
          (Kelvin)            366.59   426.18   527.06   669.56  1062.45
                             1083.35  1172.09  1289.95  1315.88  1318.79
                             1467.58  1472.63  1526.15  1545.96  1562.95
                             1682.23  1758.37  1824.32  1851.75  1904.60
                             1935.06  1943.65  1955.01  2028.87  2050.95
                             2072.59  2074.74  2179.63  2179.68  2189.21
                             2200.97  2201.23  2201.67  2214.31  2222.16
                             4330.44  4334.76  4351.08  4357.15  4360.21
                             4374.59  4374.97  4375.21  4398.42  4417.79
                             4467.09  4468.17  4474.33  4474.34

 Zero-point correction=                           0.190077 (Hartree/Particle)
 Thermal correction to Energy=                    0.198474
 Thermal correction to Enthalpy=                  0.199418
 Thermal correction to Gibbs Free Energy=         0.158129
 Sum of electronic and zero-point Energies=           -236.895403
 Sum of electronic and thermal Energies=              -236.887007
 Sum of electronic and thermal Enthalpies=            -236.886063
 Sum of electronic and thermal Free Energies=         -236.927351

                     E (Thermal)             CV                S
                      KCal/Mol        Cal/Mol-Kelvin    Cal/Mol-Kelvin
 Total                  124.544             29.151             86.899
 Electronic               0.000              0.000              0.000
 Translational            0.889              2.981             39.272
 Rotational               0.889              2.981             25.914
 Vibrational            122.767             23.189             21.713
 Vibration     1          0.599              1.966              4.032
 Vibration     2          0.604              1.948              3.439
 Vibration     3          0.612              1.923              2.939
 Vibration     4          0.618              1.902              2.667
 Vibration     5          0.659              1.774              1.780
 Vibration     6          0.665              1.755              1.697
 Vibration     7          0.690              1.681              1.438
 Vibration     8          0.739              1.542              1.095
 Vibration     9          0.823              1.327              0.751

 Optimization completed.
    -- Stationary point found.
 Normal termination of Gaussian 09 at Sun Oct  4 11:32:49 2015.
