 Gaussian 09, Revision A.01,
 Gaussian 09:  EM64L-G09RevA.01  8-May-2009

 ----------------------------------------------
 #p B3LYP/6-31G(d) opt=tight int=ultrafine freq
 ----------------------------------------------

 ---------------------------------------------
 using B3LYP/6-31G(d) to do opt and freq calc.
 ---------------------------------------------
 Symbolic Z-matrix:
 Charge =  0 Multiplicity = 1

 SCF Done:  E(RB3LYP) =  -237.083223934     A.U. after   11 cycles
 SCF Done:  E(RB3LYP) =  -237.083224979     A.U. after    8 cycles
 SCF Done:  E(RB3LYP) =  -237.083225426     A.U. after    6 cycles
 SCF Done:  E(RB3LYP) =  -237.083225455     A.U. after    5 cycles
 SCF Done:  E(RB3LYP) =  -237.083225456     A.U. after    4 cycles
 Optimization completed.
    -- Stationary point found.
 Normal termination of Gaussian 09 at Sun Oct  4 11:31:35 2015.

 --------------------------------------------------------------------
 #P Geom=AllCheck Guess=TCheck SCRF=Check GenChk RB3LYP/6-31G(d) Freq
 --------------------------------------------------------------------

 using B3LYP/6-31G(d) to do opt and freq calc.
 ---------------------------------------------
 Redundant internal coordinates taken from checkpoint file:
 /state/partition1/Gau-15957.chk
 Charge =  0 Multiplicity = 1

                         Standard orientation:
 ---------------------------------------------------------------------
 Center     Atomic      Atomic             Coordinates (Angstroms)
 Number     Number       Type             X           Y           Z
 ---------------------------------------------------------------------
      1          6           0       -2.585432   -0.173063   -0.291849
      2          1           0       -2.569458   -0.210592   -1.388477
      3          1           0       -2.798673    0.860561    0.001587
      4          1           0       -3.426358   -0.788597    0.047878
      5          6           0       -1.264298   -0.681121    0.297502
      6          1           0       -1.305088   -0.618252    1.395357
      7          1           0       -1.161923   -1.749281    0.059899
      8          6           0        0.000001    0.051166   -0.198829
      9          1           0        0.000003    0.001388   -1.300329
     10          6           0        1.264300   -0.681115    0.297508
     11          1           0        1.161927   -1.749278    0.059916
     12          1           0        1.305092   -0.618234    1.395362
     13          6           0        2.585433   -0.173062   -0.291851
     14          1           0        2.798671    0.860567    0.001568
     15          1           0        3.426361   -0.788588    0.047886
     16          1           0        2.569459   -0.210609   -1.388479
     17          6           0       -0.000004    1.533363    0.207287
     18          1           0       -0.880930    2.058937   -0.175897
     19          1           0       -0.000012    1.636037    1.301012
     20          1           0        0.880926    2.058939   -0.175885
 ---------------------------------------------------------------------

 SCF Done:  E(RB3LYP) =  -237.083225456     A.U. after    1 cycles

 The electronic state is 1-A.
 Alpha  occ. eigenvalues --  -10.18101 -10.17449 -10.17448 -10.16972 -10.16971
 Alpha  occ. eigenvalues --  -10.16735  -0.80683  -0.74380  -0.70348  -0.64780
 Alpha  occ. eigenvalues --   -0.59318  -0.54915  -0.46164  -0.44911  -0.42620
 Alpha  occ. eigenvalues --   -0.41145  -0.39181  -0.38430  -0.36955  -0.35838
 Alpha  occ. eigenvalues --   -0.34587  -0.33097  -0.31363  -0.30832  -0.30319
 Alpha virt. eigenvalues --    0.08559   0.11937   0.12221   0.12831   0.15264
 Alpha virt. eigenvalues --    0.15423   0.16435   0.17413   0.17511   0.18225
 Alpha virt. eigenvalues --    0.18607   0.20279   0.22663   0.23234   0.24607

 Mulliken atomic charges:
              1
     1  C   -0.448423
     2  H    0.140311
     3  H    0.145528
     4  H    0.141336
     5  C   -0.246017
     6  H    0.126073
     7  H    0.127239
     8  C   -0.057091
     9  H    0.113572
    10  C   -0.246017
    11  H    0.127239
    12  H    0.126073
    13  C   -0.448423
    14  H    0.145528
    15  H    0.141336
    16  H    0.140311
    17  C   -0.452986
    18  H    0.144049
    19  H    0.136311
    20  H    0.144049
 Sum of Mulliken atomic charges =   0.00000

 Dipole moment (field-independent basis, Debye):
    X=              0.0000    Y=             -0.0545    Z=             -0.0148  Tot=              0.0564
 Quadrupole moment (field-independent basis, Debye-Ang):
   XX=            -41.9987   YY=            -41.5500   ZZ=            -41.2578
   XY=              0.0000   XZ=              0.0000   YZ=              0.1388

  Exact polarizability:  73.889   0.000  62.212   0.000  -0.055  58.394
 Approx polarizability:  85.621   0.000  84.883   0.000   0.425  85.861

                     1                      2                      3
                     A                      A                      A
 Frequencies --    84.8013                85.1131               202.2880
 Red. masses --     1.4944                 2.2539                 1.8415
 Frc consts  --     0.0063                 0.0096                 0.0444
 IR Inten    --     0.0002                 0.0009                 0.0049

                     4                      5                      6
                     A                      A                      A
 Frequencies --   212.2652               231.5923               272.0804
 Red. masses --     1.0269                 1.3455                 1.2759
 Frc consts  --     0.0273                 0.0425                 0.0556
 IR Inten    --     0.0547                 0.0169                 0.0232

                     7                      8                      9
                     A                      A                      A
 Frequencies --   320.9667               387.9398               439.5496
 Red. masses --     2.1235                 2.6317                 2.1196
 Frc consts  --     0.1289                 0.2334                 0.2413
 IR Inten    --     0.0233                 0.1269                 0.1849

                    10                     11                     12
                     A                      A                      A
 Frequencies --   456.2006               772.5227               778.9747
 Red. masses --     2.1646                 1.7175                 1.1390
 Frc consts  --     0.2654                 0.6039                 0.4072
 IR Inten    --     0.1971                 3.3919                 0.2053

                    13                     14                     15
                     A                      A                      A
 Frequencies --   828.9408               889.2682               970.1087
 Red. masses --     1.3811                 2.1510                 1.2719
 Frc consts  --     0.5591                 1.0022                 0.7052
 IR Inten    --     1.3611                 0.0206                 2.6122

                    16                     17                     18
                     A                      A                      A
 Frequencies --   982.2679              1002.5859              1039.2421
 Red. masses --     1.5371                 1.3315                 1.9563
 Frc consts  --     0.8738                 0.7885                 1.2448
 IR Inten    --     1.4104                 6.3131                 0.0006

                    19                     20                     21
                     A                      A                      A
 Frequencies --  1067.9872              1068.9573              1184.4489
 Red. masses --     1.4445                 3.0134                 2.1125
 Frc consts  --     0.9708                 2.0288                 1.7461
 IR Inten    --     1.8329                 0.0367                 0.8189

                    22                     23                     24
                     A                      A                      A
 Frequencies --  1186.4639              1213.8420              1294.9646
 Red. masses --     1.8032                 1.9738                 1.2847
 Frc consts  --     1.4956                 1.7134                 1.2693
 IR Inten    --     6.3485                 0.0806                 3.7159

                    25                     26                     27
                     A                      A                      A
 Frequencies --  1322.0428              1329.9253              1390.0809
 Red. masses --     1.2462                 1.1335                 1.3712
 Frc consts  --     1.2833                 1.1812                 1.5610
 IR Inten    --     1.2978                 2.2856                 0.3559

                    28                     29                     30
                     A                      A                      A
 Frequencies --  1398.0482              1407.4834              1439.5304
 Red. masses --     1.3127                 1.5549                 1.2318
 Frc consts  --     1.5116                 1.8148                 1.5039
 IR Inten    --     1.7775                 0.6664                 1.7743

                    31                     32                     33
                     A                      A                      A
 Frequencies --  1440.6281              1444.3112              1509.0553
 Red. masses --     1.3068                 1.2210                 1.0721
 Frc consts  --     1.5980                 1.5007                 1.4385
 IR Inten    --     4.5222                 1.8797                 0.0149

                    34                     35                     36
                     A                      A                      A
 Frequencies --  1518.8004              1526.2618              1529.2994
 Red. masses --     1.0620                 1.0418                 1.0543
 Frc consts  --     1.4433                 1.4298                 1.4527
 IR Inten    --     0.9105                 9.8109                 1.2649

                    37                     38                     39
                     A                      A                      A
 Frequencies --  1530.9529              1538.1815              1538.9694
 Red. masses --     1.0526                 1.0548                 1.0699
 Frc consts  --     1.4535                 1.4703                 1.4930
 IR Inten    --     0.1127                 3.9729                 7.9247

                    40                     41                     42
                     A                      A                      A
 Frequencies --  1548.1288              2990.2952              3014.8673
 Red. masses --     1.0448                 1.0819                 1.0603
 Frc consts  --     1.4753                 5.6997                 5.6783
 IR Inten    --     4.5208                12.3228                 0.5829

                    43                     44                     45
                     A                      A                      A
 Frequencies --  3022.3084              3040.8920              3042.9148
 Red. masses --     1.0608                 1.0404                 1.0491
 Frc consts  --     5.7093                 5.6681                 5.7231
 IR Inten    --    68.0349                22.7013                37.1248

                    46                     47                     48
                     A                      A                      A
 Frequencies --  3045.1006              3047.9812              3057.2996
 Red. masses --     1.0394                 1.0889                 1.1001
 Frc consts  --     5.6784                 5.9601                 6.0582
 IR Inten    --    11.4736                 5.2008                57.2643

                    49                     50                     51
                     A                      A                      A
 Frequencies --  3105.7500              3106.1245              3106.7438
 Red. masses --     1.1016                 1.0998                 1.0984
 Frc consts  --     6.2603                 6.2519                 6.2460
 IR Inten    --    20.5025                13.0075                94.7485

                    52                     53                     54
                     A                      A                      A
 Frequencies --  3112.9279              3118.5466              3124.6762
 Red. masses --     1.1024                 1.1001                 1.1008
 Frc consts  --     6.2942                 6.3033                 6.3322
 IR Inten    --    25.7053                90.3785                20.4678

 - Thermochemistry -
 -------------------
 Temperature   298.150 Kelvin.  Pressure   1.00000 Atm.
 Atom     1 has atomic number  6 and mass  12.00000

 Molecular mass:    86.10955 amu.
 Principal axes and moments of inertia in atomic units:
                           1         2         3
     Eigenvalues --   276.97762 984.615311144.08405
           X            1.00000   0.00000   0.00000
           Y            0.00000   1.00000  -0.00048
           Z            0.00000   0.00048   1.00000
 This molecule is an asymmetric top.
 Rotational symmetry number  1.
 Rotational temperatures (Kelvin)      0.31271     0.08797     0.07571
 Rotational constants (GHZ):           6.51584     1.83294     1.57746
 Zero-point vibrational energy     498373.2 (Joules/Mol)
                                  119.11406 (Kcal/Mol)
 Warning -- explicit consideration of  10 degrees of freedom as
           vibrations may cause significant error
 Vibrational temperatures:    122.01   122.46   291.05   305.40   333.21
          (Kelvin)            391.46   461.80   558.16   632.41   656.37
                             1111.49  1120.77  1192.66  1279.46  1395.77
                             1413.26  1442.50  1495.24  1536.59  1537.99
                             1704.16  1707.05  1746.45  1863.16  1902.12
                             1913.46  2000.01  2011.48  2025.05  2071.16
                             2072.74  2078.04  2171.19  2185.21  2195.95
                             2200.32  2202.70  2213.10  2214.23  2227.41
                             4302.36  4337.72  4348.42  4375.16  4378.07
                             4381.22  4385.36  4398.77  4468.48  4469.01
                             4469.91  4478.80  4486.89  4495.71

 Zero-point correction=                           0.189820 (Hartree/Particle)
 Thermal correction to Energy=                    0.198158
 Thermal correction to Enthalpy=                  0.199102
 Thermal correction to Gibbs Free Energy=         0.157646
 Sum of electronic and zero-point Energies=           -236.893405
 Sum of electronic and thermal Energies=              -236.885067
 Sum of electronic and thermal Enthalpies=            -236.884123
 Sum of electronic and thermal Free Energies=         -236.925579

                     E (Thermal)             CV                S
                      KCal/Mol        Cal/Mol-Kelvin    Cal/Mol-Kelvin
 Total                  124.346             29.739             87.252
 Electronic               0.000              0.000              0.000
 Translational            0.889              2.981             39.272
 Rotational               0.889              2.981             27.236
 Vibrational            122.569             23.777             20.744
 Vibration     1          0.601              1.960              3.777
 Vibration     2          0.601              1.960              3.769
 Vibration     3          0.639              1.837              2.112
 Vibration     4          0.643              1.822              2.024
 Vibration     5          0.653              1.793              1.867
 Vibration     6          0.675              1.725              1.583
 Vibration     7          0.706              1.633              1.305
 Vibration     8          0.756              1.496              1.008
 Vibration     9          0.800              1.384              0.828
 Vibration    10          0.814              1.347              0.777

 Optimization completed.
    -- Stationary point found.
 Normal termination of Gaussian 09 at Sun Oct  4 11:37:53 2015.
