 Gaussian 09, Revision A.01,
 Gaussian 09:  EM64L-G09RevA.01  8-May-2009

 ----------------------------------------------
 #p B3LYP/6-31G(d) opt=tight int=ultrafine freq
 ----------------------------------------------

 ---------------------------------------------
 using B3LYP/6-31G(d) to do opt and freq calc.
 ---------------------------------------------
 Symbolic Z-matrix:
 Charge =  0 Multiplicity = 1

 SCF Done:  E(RB3LYP) =  -237.083671328     A.U. after   12 cycles
 SCF Done:  E(RB3LYP) =  -237.083671677     A.U. after    6 cycles
 SCF Done:  E(RB3LYP) =  -237.083671774     A.U. after    6 cycles
 SCF Done:  E(RB3LYP) =  -237.083671777     A.U. after    5 cycles
 SCF Done:  E(RB3LYP) =  -237.083671777     A.U. after    4 cycles
 Optimization completed.
    -- Stationary point found.
 Normal termination of Gaussian 09 at Sun Oct  4 11:31:57 2015.

 --------------------------------------------------------------------
 #P Geom=AllCheck Guess=TCheck SCRF=Check GenChk RB3LYP/6-31G(d) Freq
 --------------------------------------------------------------------

 using B3LYP/6-31G(d) to do opt and freq calc.
 ---------------------------------------------
 Redundant internal coordinates taken from checkpoint file:
 /state/partition1/Gau-15955.chk
 Charge =  0 Multiplicity = 1

                         Standard orientation:
 ---------------------------------------------------------------------
 Center     Atomic      Atomic             Coordinates (Angstroms)
 Number     Number       Type             X           Y           Z
 ---------------------------------------------------------------------
      1          6           0        1.618032    0.989661   -0.000046
      2          1           0        1.593672    1.636429    0.885962
      3          1           0        1.593672    1.636347   -0.886113
      4          1           0        2.578316    0.459293   -0.000021
      5          6           0        0.436353   -0.000500    0.000000
      6          6           0       -0.878586    0.823914   -0.000030
      7          1           0       -0.865713    1.486486   -0.877558
      8          1           0       -0.865712    1.486551    0.877447
      9          6           0       -2.193477    0.033880   -0.000001
     10          1           0       -2.289029   -0.605019    0.884964
     11          1           0       -3.048488    0.719808   -0.000012
     12          1           0       -2.289041   -0.605062   -0.884933
     13          6           0        0.528897   -0.885012   -1.258652
     14          1           0       -0.262439   -1.642476   -1.285245
     15          1           0        0.448512   -0.282917   -2.172624
     16          1           0        1.489696   -1.413344   -1.292039
     17          6           0        0.528906   -0.884904    1.258727
     18          1           0        1.489700   -1.413241    1.292148
     19          1           0        0.448537   -0.282728    2.172647
     20          1           0       -0.262436   -1.642360    1.285396
 ---------------------------------------------------------------------

 SCF Done:  E(RB3LYP) =  -237.083671777     A.U. after    1 cycles

 The electronic state is 1-A.
 Alpha  occ. eigenvalues --  -10.19076 -10.17436 -10.16949 -10.16703 -10.16702
 Alpha  occ. eigenvalues --  -10.16691  -0.81596  -0.73038  -0.67745  -0.67728
 Alpha  occ. eigenvalues --   -0.61747  -0.52183  -0.45194  -0.45090  -0.43035
 Alpha  occ. eigenvalues --   -0.41750  -0.39343  -0.37696  -0.37166  -0.35836
 Alpha  occ. eigenvalues --   -0.35236  -0.33908  -0.31107  -0.30915  -0.30319
 Alpha virt. eigenvalues --    0.07666   0.12426   0.13492   0.13722   0.14285
 Alpha virt. eigenvalues --    0.14615   0.16126   0.17675   0.17805   0.19652
 Alpha virt. eigenvalues --    0.20521   0.20875   0.22602   0.22710   0.24418

 Mulliken atomic charges:
              1
     1  C   -0.440472
     2  H    0.136311
     3  H    0.136311
     4  H    0.135829
     5  C    0.107047
     6  C   -0.240535
     7  H    0.124726
     8  H    0.124726
     9  C   -0.453889
    10  H    0.145132
    11  H    0.141550
    12  H    0.145132
    13  C   -0.444652
    14  H    0.141135
    15  H    0.135863
    16  H    0.136720
    17  C   -0.444651
    18  H    0.136720
    19  H    0.135863
    20  H    0.141135
 Sum of Mulliken atomic charges =   0.00000

 Dipole moment (field-independent basis, Debye):
    X=             -0.0374    Y=              0.0165    Z=              0.0000  Tot=              0.0409
 Quadrupole moment (field-independent basis, Debye-Ang):
   XX=            -41.7875   YY=            -41.6710   ZZ=            -41.5862
   XY=             -0.2725   XZ=              0.0000   YZ=              0.0000

  Exact polarizability:  68.601  -0.327  62.100   0.000   0.000  62.211
 Approx polarizability:  86.758  -0.894  85.731   0.000   0.000  86.110

                     1                      2                      3
                     A                      A                      A
 Frequencies --    86.5677               209.0868               249.7811
 Red. masses --     1.6837                 1.0302                 1.1036
 Frc consts  --     0.0074                 0.0265                 0.0406
 IR Inten    --     0.0049                 0.0084                 0.0000

                     4                      5                      6
                     A                      A                      A
 Frequencies --   254.7730               271.2528               285.4236
 Red. masses --     2.2872                 1.0832                 1.1078
 Frc consts  --     0.0875                 0.0470                 0.0532
 IR Inten    --     0.0304                 0.0575                 0.0009

                     7                      8                      9
                     A                      A                      A
 Frequencies --   333.4689               354.4748               406.5897
 Red. masses --     2.0679                 2.2660                 2.2375
 Frc consts  --     0.1355                 0.1678                 0.2179
 IR Inten    --     0.0103                 0.0173                 0.0283

                    10                     11                     12
                     A                      A                      A
 Frequencies --   418.4444               483.9194               710.1959
 Red. masses --     2.0030                 2.4222                 3.1070
 Frc consts  --     0.2066                 0.3342                 0.9233
 IR Inten    --     0.0211                 0.3738                 0.2955

                    13                     14                     15
                     A                      A                      A
 Frequencies --   791.5869               877.5607               940.4818
 Red. masses --     1.1855                 2.0419                 1.7603
 Frc consts  --     0.4377                 0.9265                 0.9173
 IR Inten    --     2.3958                 0.1759                 0.8127

                    16                     17                     18
                     A                      A                      A
 Frequencies --   941.7129               969.9981              1010.9178
 Red. masses --     1.8038                 1.2018                 1.2727
 Frc consts  --     0.9425                 0.6663                 0.7663
 IR Inten    --     0.1185                 0.0087                 0.6147

                    19                     20                     21
                     A                      A                      A
 Frequencies --  1022.4523              1034.5648              1106.8977
 Red. masses --     1.2943                 2.3272                 1.6579
 Frc consts  --     0.7972                 1.4676                 1.1968
 IR Inten    --     3.0558                 1.3225                 2.1813

                    22                     23                     24
                     A                      A                      A
 Frequencies --  1116.7146              1250.7278              1260.3118
 Red. masses --     1.4126                 2.4016                 2.0221
 Frc consts  --     1.0379                 2.2135                 1.8924
 IR Inten    --     0.3430                 8.4581                 1.9848

                    25                     26                     27
                     A                      A                      A
 Frequencies --  1287.9852              1350.8597              1390.6197
 Red. masses --     2.7216                 1.3320                 1.4509
 Frc consts  --     2.6601                 1.4321                 1.6531
 IR Inten    --     4.3611                 0.9043                 0.5223

                    28                     29                     30
                     A                      A                      A
 Frequencies --  1426.6923              1427.5460              1441.0925
 Red. masses --     1.2499                 1.2471                 1.2430
 Frc consts  --     1.4990                 1.4974                 1.5209
 IR Inten    --     3.6512                 5.5665                 4.5661

                    31                     32                     33
                     A                      A                      A
 Frequencies --  1458.5396              1509.2340              1511.4639
 Red. masses --     1.2237                 1.0675                 1.0489
 Frc consts  --     1.5338                 1.4326                 1.4118
 IR Inten    --     3.0852                 0.0677                 0.0809

                    34                     35                     36
                     A                      A                      A
 Frequencies --  1516.5045              1519.7752              1532.3178
 Red. masses --     1.0445                 1.0480                 1.0449
 Frc consts  --     1.4153                 1.4262                 1.4455
 IR Inten    --     0.1690                 0.0698                 8.8840

                    37                     38                     39
                     A                      A                      A
 Frequencies --  1537.8389              1540.1985              1543.0373
 Red. masses --     1.0702                 1.0498                 1.0543
 Frc consts  --     1.4913                 1.4673                 1.4790
 IR Inten    --     3.6964                 5.1797                 0.0001

                    40                     41                     42
                     A                      A                      A
 Frequencies --  1548.9767              3018.0268              3032.8670
 Red. masses --     1.0588                 1.0588                 1.0349
 Frc consts  --     1.4967                 5.6824                 5.6087
 IR Inten    --    10.3239                30.5194                33.3820

                    43                     44                     45
                     A                      A                      A
 Frequencies --  3035.9333              3043.6357              3049.9739
 Red. masses --     1.0353                 1.0370                 1.1031
 Frc consts  --     5.6224                 5.6599                 6.0457
 IR Inten    --    36.1148                16.7003                20.9339

                    46                     47                     48
                     A                      A                      A
 Frequencies --  3051.2843              3097.5502              3097.9165
 Red. masses --     1.0365                 1.1026                 1.1024
 Frc consts  --     5.6854                 6.2330                 6.2333
 IR Inten    --    16.1212                 0.0061                 0.8518

                    49                     50                     51
                     A                      A                      A
 Frequencies --  3101.3027              3105.2505              3107.8088
 Red. masses --     1.1023                 1.1013                 1.1017
 Frc consts  --     6.2465                 6.2569                 6.2692
 IR Inten    --    31.1741                55.2415                40.1066

                    52                     53                     54
                     A                      A                      A
 Frequencies --  3108.9023              3116.2482              3121.1621
 Red. masses --     1.1015                 1.0999                 1.1019
 Frc consts  --     6.2726                 6.2931                 6.3242
 IR Inten    --    83.9600                60.5138                35.8590

 - Thermochemistry -
 -------------------
 Temperature   298.150 Kelvin.  Pressure   1.00000 Atm.
 Atom     1 has atomic number  6 and mass  12.00000

 Molecular mass:    86.10955 amu.
 Principal axes and moments of inertia in atomic units:
                           1         2         3
     Eigenvalues --   423.50446 730.78588 733.29165
           X            0.99996   0.00923   0.00000
           Y           -0.00923   0.99996   0.00001
           Z            0.00000  -0.00001   1.00000
 This molecule is an asymmetric top.
 Rotational symmetry number  1.
 Rotational temperatures (Kelvin)      0.20452     0.11852     0.11812
 Rotational constants (GHZ):           4.26145     2.46959     2.46115
 Zero-point vibrational energy     496560.6 (Joules/Mol)
                                  118.68083 (Kcal/Mol)
 Warning -- explicit consideration of  11 degrees of freedom as
           vibrations may cause significant error
 Vibrational temperatures:    124.55   300.83   359.38   366.56   390.27
          (Kelvin)            410.66   479.79   510.01   584.99   602.05
                              696.25  1021.81  1138.92  1262.61  1353.14
                             1354.91  1395.61  1454.48  1471.08  1488.51
                             1592.58  1606.70  1799.52  1813.31  1853.12
                             1943.58  2000.79  2052.69  2053.92  2073.41
                             2098.51  2171.45  2174.66  2181.91  2186.61
                             2204.66  2212.60  2216.00  2220.08  2228.63
                             4342.26  4363.61  4368.03  4379.11  4388.23
                             4390.11  4456.68  4457.21  4462.08  4467.76
                             4471.44  4473.01  4483.58  4490.65

 Zero-point correction=                           0.189130 (Hartree/Particle)
 Thermal correction to Energy=                    0.197351
 Thermal correction to Enthalpy=                  0.198295
 Thermal correction to Gibbs Free Energy=         0.157865
 Sum of electronic and zero-point Energies=           -236.894542
 Sum of electronic and thermal Energies=              -236.886321
 Sum of electronic and thermal Enthalpies=            -236.885377
 Sum of electronic and thermal Free Energies=         -236.925807

                     E (Thermal)             CV                S
                      KCal/Mol        Cal/Mol-Kelvin    Cal/Mol-Kelvin
 Total                  123.840             30.662             85.093
 Electronic               0.000              0.000              0.000
 Translational            0.889              2.981             39.272
 Rotational               0.889              2.981             26.920
 Vibrational            122.062             24.701             18.901
 Vibration     1          0.601              1.959              3.736
 Vibration     2          0.642              1.827              2.052
 Vibration     3          0.663              1.763              1.732
 Vibration     4          0.665              1.755              1.697
 Vibration     5          0.675              1.726              1.588
 Vibration     6          0.683              1.701              1.501
 Vibration     7          0.715              1.609              1.243
 Vibration     8          0.730              1.566              1.146
 Vibration     9          0.771              1.456              0.939
 Vibration    10          0.781              1.430              0.897
 Vibration    11          0.840              1.286              0.700

 Optimization completed.
    -- Stationary point found.
 Normal termination of Gaussian 09 at Sun Oct  4 11:38:14 2015.
