 Gaussian 09, Revision D.01,
 Gaussian 09:  ES64L-G09RevD.01 24-Apr-2013

 ----------------------------------------------
 #p B3LYP/6-31G(d) opt=tight int=ultrafine freq
 ----------------------------------------------

 ---------------------------------------------
 using B3LYP/6-31G(d) to do opt and freq calc.
 ---------------------------------------------
 Symbolic Z-matrix:
 Charge =  0 Multiplicity = 2

 SCF Done:  E(UB3LYP) =  -236.407462316     A.U. after   14 cycles
 SCF Done:  E(UB3LYP) =  -236.415312190     A.U. after   12 cycles
 SCF Done:  E(UB3LYP) =  -236.417429846     A.U. after   12 cycles
 SCF Done:  E(UB3LYP) =  -236.417640030     A.U. after   12 cycles
 SCF Done:  E(UB3LYP) =  -236.417693843     A.U. after   11 cycles
 SCF Done:  E(UB3LYP) =  -236.417734103     A.U. after   11 cycles
 SCF Done:  E(UB3LYP) =  -236.417812934     A.U. after   12 cycles
 SCF Done:  E(UB3LYP) =  -236.389997796     A.U. after   13 cycles
 SCF Done:  E(UB3LYP) =  -236.417826320     A.U. after    7 cycles
 SCF Done:  E(UB3LYP) =  -236.418127667     A.U. after   12 cycles
 SCF Done:  E(UB3LYP) =  -236.418723236     A.U. after   12 cycles
 SCF Done:  E(UB3LYP) =  -236.418775251     A.U. after   12 cycles
 SCF Done:  E(UB3LYP) =  -236.418794706     A.U. after   11 cycles
 SCF Done:  E(UB3LYP) =  -236.418801402     A.U. after   10 cycles
 SCF Done:  E(UB3LYP) =  -236.418803709     A.U. after   10 cycles
 SCF Done:  E(UB3LYP) =  -236.418803874     A.U. after    8 cycles
 SCF Done:  E(UB3LYP) =  -236.418803917     A.U. after    7 cycles
 SCF Done:  E(UB3LYP) =  -236.418803919     A.U. after    6 cycles
 SCF Done:  E(UB3LYP) =  -236.418803918     A.U. after    5 cycles
 Optimization completed.
    -- Stationary point found.
 Normal termination of Gaussian 09 at Sat Nov  7 02:20:31 2015.

 --------------------------------------------------------------------
 #P Geom=AllCheck Guess=TCheck SCRF=Check GenChk UB3LYP/6-31G(d) Freq
 --------------------------------------------------------------------

 Structure from the checkpoint file:  "/state/partition1/Gau-14124.chk"
 ---------------------------------------------
 using B3LYP/6-31G(d) to do opt and freq calc.
 ---------------------------------------------
 Charge =  0 Multiplicity = 2

                         Standard orientation:
 ---------------------------------------------------------------------
 Center     Atomic      Atomic             Coordinates (Angstroms)
 Number     Number       Type             X           Y           Z
 ---------------------------------------------------------------------
      1          6           0        1.984475   -1.209503   -0.026759
      2          1           0        1.581095   -2.143237   -0.433908
      3          1           0        2.115334   -1.345323    1.054667
      4          1           0        2.976991   -1.046695   -0.463563
      5          6           0        1.047556   -0.024592   -0.317217
      6          1           0        0.948385    0.073526   -1.410163
      7          6           0       -0.321046   -0.251670    0.255987
      8          1           0       -0.384648   -0.713588    1.242762
      9          6           0       -1.545106    0.423247   -0.276816
     10          1           0       -1.475885    0.500752   -1.372640
     11          1           0       -1.596321    1.470753    0.079397
     12          6           0       -2.852639   -0.283035    0.111016
     13          1           0       -2.957675   -0.342646    1.201084
     14          1           0       -3.725194    0.252718   -0.279451
     15          1           0       -2.877808   -1.305996   -0.281066
     16          6           0        1.670734    1.296991    0.198626
     17          1           0        1.031113    2.156433   -0.031254
     18          1           0        1.809100    1.261971    1.286270
     19          1           0        2.651668    1.472702   -0.261165
 ---------------------------------------------------------------------

 SCF Done:  E(UB3LYP) =  -236.418803918     A.U. after    1 cycles

 The electronic state is 2-A.
 Alpha  occ. eigenvalues --  -10.18648 -10.18153 -10.17879 -10.17197 -10.17193
 Alpha  occ. eigenvalues --  -10.16932  -0.80711  -0.75915  -0.67716  -0.66615
 Alpha  occ. eigenvalues --   -0.59083  -0.54815  -0.45462  -0.44405  -0.43266
 Alpha  occ. eigenvalues --   -0.41054  -0.39329  -0.38093  -0.37645  -0.35400
 Alpha  occ. eigenvalues --   -0.34339  -0.33191  -0.32178  -0.31628  -0.17773
 Alpha virt. eigenvalues --    0.09465   0.11203   0.12324   0.13817   0.15629
 Alpha virt. eigenvalues --    0.16392   0.16569   0.17169   0.17624   0.18794
 Alpha virt. eigenvalues --    0.19677   0.19923   0.21369   0.22377   0.25066

  Beta  occ. eigenvalues --  -10.18730 -10.18240 -10.17163 -10.17063 -10.16897
  Beta  occ. eigenvalues --  -10.16517  -0.79705  -0.75654  -0.67531  -0.65330
  Beta  occ. eigenvalues --   -0.58702  -0.53735  -0.44906  -0.44021  -0.42971
  Beta  occ. eigenvalues --   -0.40498  -0.39084  -0.37907  -0.37375  -0.34857
  Beta  occ. eigenvalues --   -0.33983  -0.32862  -0.31877  -0.31182
  Beta virt. eigenvalues --   -0.02947   0.09541   0.11312   0.12584   0.13948
  Beta virt. eigenvalues --    0.15793   0.16545   0.17147   0.17315   0.17829
  Beta virt. eigenvalues --    0.18884   0.19823   0.20163   0.21832   0.23004

 Mulliken charges and spin densities:
               1          2
     1  C   -0.442284   0.011923
     2  H    0.144999   0.000931
     3  H    0.138346  -0.000923
     4  H    0.137688   0.001826
     5  C   -0.095311  -0.069578
     6  H    0.122611   0.012859
     7  C   -0.088833   1.024139
     8  H    0.112946  -0.047967
     9  C   -0.280410  -0.077852
    10  H    0.136383   0.016049
    11  H    0.139872   0.061288
    12  C   -0.441797   0.011376
    13  H    0.142915  -0.001034
    14  H    0.140122   0.001526
    15  H    0.147749   0.002111
    16  C   -0.436955   0.044049
    17  H    0.143030  -0.002252
    18  H    0.139911  -0.000602
    19  H    0.139017   0.012130
 Sum of Mulliken charges =   0.00000   1.00000

 Dipole moment (field-independent basis, Debye):
    X=             -0.0120    Y=              0.2197    Z=             -0.0412  Tot=              0.2239
 Quadrupole moment (field-independent basis, Debye-Ang):
   XX=            -40.7631   YY=            -41.2688   ZZ=            -40.1066
   XY=             -0.3065   XZ=             -0.1055   YZ=             -0.2946

  Exact polarizability:  75.589  -0.624  60.249  -0.342  -1.786  57.062
 Approx polarizability:  87.284  -0.944  80.160  -0.594  -3.144  82.825

                      1                      2                      3
                      A                      A                      A
 Frequencies --     31.8825                59.6897               185.7540
 Red. masses --      1.8171                 2.5833                 1.8412
 Frc consts  --      0.0011                 0.0054                 0.0374
 IR Inten    --      0.0218                 0.0623                 0.0406

                      4                      5                      6
                      A                      A                      A
 Frequencies --    229.1895               246.1505               262.1340
 Red. masses --      1.0285                 1.1191                 1.1614
 Frc consts  --      0.0318                 0.0400                 0.0470
 IR Inten    --      0.0264                 0.0580                 0.5464

                      7                      8                      9
                      A                      A                      A
 Frequencies --    292.8825               339.3315               401.1441
 Red. masses --      2.1023                 1.9243                 1.8415
 Frc consts  --      0.1063                 0.1306                 0.1746
 IR Inten    --      0.4403                 1.5661                 3.6283

                     10                     11                     12
                      A                      A                      A
 Frequencies --    456.7977               529.0574               777.3310
 Red. masses --      2.7327                 1.9989                 1.2616
 Frc consts  --      0.3360                 0.3297                 0.4492
 IR Inten    --      0.5009                12.1752                 1.5614

                     13                     14                     15
                      A                      A                      A
 Frequencies --    836.6473               898.2057               935.7781
 Red. masses --      2.0933                 2.0668                 1.1970
 Frc consts  --      0.8633                 0.9824                 0.6176
 IR Inten    --      1.7164                 0.3646                 0.7341

                     16                     17                     18
                      A                      A                      A
 Frequencies --    964.2876               987.1951              1046.3810
 Red. masses --      1.5195                 1.8965                 1.5487
 Frc consts  --      0.8324                 1.0889                 0.9991
 IR Inten    --      0.0738                 4.3699                 2.0244

                     19                     20                     21
                      A                      A                      A
 Frequencies --   1067.8516              1104.3024              1141.3327
 Red. masses --      1.6000                 2.1552                 1.9820
 Frc consts  --      1.0749                 1.5485                 1.5212
 IR Inten    --      0.2201                 2.8548                 1.1570

                     22                     23                     24
                      A                      A                      A
 Frequencies --   1194.2894              1203.3536              1282.0067
 Red. masses --      1.9864                 1.8471                 1.2605
 Frc consts  --      1.6693                 1.5759                 1.2206
 IR Inten    --      1.6239                 2.0630                 1.9903

                     25                     26                     27
                      A                      A                      A
 Frequencies --   1300.4071              1346.0461              1377.9911
 Red. masses --      1.2545                 1.2706                 1.4036
 Frc consts  --      1.2499                 1.3564                 1.5703
 IR Inten    --     10.8224                 3.1313                 0.3626

                     28                     29                     30
                      A                      A                      A
 Frequencies --   1417.8575              1432.3651              1438.6765
 Red. masses --      1.2286                 1.4499                 1.2519
 Frc consts  --      1.4552                 1.7527                 1.5267
 IR Inten    --      1.5266                 1.5324                 1.7704

                     31                     32                     33
                      A                      A                      A
 Frequencies --   1448.2929              1502.8718              1517.5167
 Red. masses --      1.4196                 1.0699                 1.0448
 Frc consts  --      1.7544                 1.4238                 1.4176
 IR Inten    --      0.6820                 0.6046                 0.0668

                     34                     35                     36
                      A                      A                      A
 Frequencies --   1519.3601              1527.6783              1531.3196
 Red. masses --      1.0497                 1.0411                 1.0488
 Frc consts  --      1.4276                 1.4316                 1.4490
 IR Inten    --      2.3369                 6.0580                 4.1278

                     37                     38                     39
                      A                      A                      A
 Frequencies --   1535.1205              1538.6100              2928.0211
 Red. masses --      1.0581                 1.0582                 1.0730
 Frc consts  --      1.4691                 1.4760                 5.4200
 IR Inten    --      4.0135                 6.0251                38.5400

                     40                     41                     42
                      A                      A                      A
 Frequencies --   2996.0631              3022.2702              3035.0284
 Red. masses --      1.0828                 1.0838                 1.0349
 Frc consts  --      5.7269                 5.8327                 5.6166
 IR Inten    --     18.1861                30.6412                30.6858

                     43                     44                     45
                      A                      A                      A
 Frequencies --   3040.0685              3045.8619              3098.7084
 Red. masses --      1.0358                 1.0352                 1.1021
 Frc consts  --      5.6402                 5.6584                 6.2350
 IR Inten    --     32.9631                30.9205                 0.6600

                     46                     47                     48
                      A                      A                      A
 Frequencies --   3104.6641              3110.4905              3113.5333
 Red. masses --      1.1013                 1.1020                 1.1024
 Frc consts  --      6.2543                 6.2820                 6.2965
 IR Inten    --     71.0506                39.5873                28.1068

                     49                     50                     51
                      A                      A                      A
 Frequencies --   3115.5727              3117.2672              3138.5390
 Red. masses --      1.1023                 1.1031                 1.0860
 Frc consts  --      6.3039                 6.3155                 6.3030
 IR Inten    --     38.4076                38.1145                38.4235

 - Thermochemistry -
 -------------------
 Temperature   298.150 Kelvin.  Pressure   1.00000 Atm.
 Atom     1 has atomic number  6 and mass  12.00000

 Molecular mass:    85.10173 amu.
 Principal axes and moments of inertia in atomic units:
                           1         2         3
     Eigenvalues --   272.796881070.327811243.99638
           X            1.00000   0.00067   0.00054
           Y           -0.00066   0.99995  -0.01035
           Z           -0.00054   0.01035   0.99995
 This molecule is an asymmetric top.
 Rotational symmetry number  1.
 Rotational temperatures (Kelvin)      0.31750     0.08092     0.06963
 Rotational constants (GHZ):           6.61570     1.68616     1.45076
 Zero-point vibrational energy     459205.6 (Joules/Mol)
                                  109.75277 (Kcal/Mol)
 Warning -- explicit consideration of  11 degrees of freedom as
           vibrations may cause significant error
 Vibrational temperatures:     45.87    85.88   267.26   329.75   354.16
          (Kelvin)            377.15   421.39   488.22   577.16   657.23
                              761.19  1118.40  1203.75  1292.32  1346.37
                             1387.39  1420.35  1505.51  1536.40  1588.84
                             1642.12  1718.31  1731.36  1844.52  1870.99
                             1936.66  1982.62  2039.98  2060.85  2069.93
                             2083.77  2162.29  2183.37  2186.02  2197.99
                             2203.22  2208.69  2213.71  4212.76  4310.66
                             4348.37  4366.72  4373.98  4382.31  4458.34
                             4466.91  4475.30  4479.67  4482.61  4485.05
                             4515.65

 Zero-point correction=                           0.174902 (Hartree/Particle)
 Thermal correction to Energy=                    0.183629
 Thermal correction to Enthalpy=                  0.184573
 Thermal correction to Gibbs Free Energy=         0.140770
 Sum of electronic and zero-point Energies=           -236.243902
 Sum of electronic and thermal Energies=              -236.235175
 Sum of electronic and thermal Enthalpies=            -236.234231
 Sum of electronic and thermal Free Energies=         -236.278034

                     E (Thermal)             CV                S
                      KCal/Mol        Cal/Mol-Kelvin    Cal/Mol-Kelvin
 Total                  115.229             30.393             92.190
 Electronic               0.000              0.000              1.377
 Translational            0.889              2.981             39.237
 Rotational               0.889              2.981             27.387
 Vibrational            113.451             24.431             24.188
 Vibration     1          0.594              1.983              5.709
 Vibration     2          0.597              1.974              4.467
 Vibration     3          0.632              1.859              2.270
 Vibration     4          0.652              1.796              1.885
 Vibration     5          0.661              1.769              1.758
 Vibration     6          0.669              1.742              1.648
 Vibration     7          0.688              1.687              1.457
 Vibration     8          0.719              1.597              1.215
 Vibration     9          0.767              1.468              0.958
 Vibration    10          0.815              1.346              0.775
 Vibration    11          0.884              1.186              0.589

 Optimization completed.
    -- Stationary point found.
 Normal termination of Gaussian 09 at Sat Nov  7 02:27:30 2015.
