 Gaussian 09, Revision D.01,
 Gaussian 09:  ES64L-G09RevD.01 24-Apr-2013

 ----------------------------------------------
 #p B3LYP/6-31G(d) opt=tight int=ultrafine freq
 ----------------------------------------------

 ---------------------------------------------
 using B3LYP/6-31G(d) to do opt and freq calc.
 ---------------------------------------------
 Symbolic Z-matrix:
 Charge =  0 Multiplicity = 2

 SCF Done:  E(UB3LYP) =  -236.401687770     A.U. after   14 cycles
 SCF Done:  E(UB3LYP) =  -236.409724211     A.U. after   14 cycles
 SCF Done:  E(UB3LYP) =  -236.411724582     A.U. after   13 cycles
 SCF Done:  E(UB3LYP) =  -236.411877263     A.U. after   11 cycles
 SCF Done:  E(UB3LYP) =  -236.411903764     A.U. after   10 cycles
 SCF Done:  E(UB3LYP) =  -236.411911143     A.U. after   10 cycles
 SCF Done:  E(UB3LYP) =  -236.411912111     A.U. after    8 cycles
 SCF Done:  E(UB3LYP) =  -236.411912152     A.U. after    6 cycles
 SCF Done:  E(UB3LYP) =  -236.411912154     A.U. after    5 cycles
 SCF Done:  E(UB3LYP) =  -236.411912155     A.U. after    5 cycles
 SCF Done:  E(UB3LYP) =  -236.411912154     A.U. after    6 cycles
 SCF Done:  E(UB3LYP) =  -236.411912153     A.U. after    5 cycles
 SCF Done:  E(UB3LYP) =  -236.411912153     A.U. after    4 cycles
 Optimization completed.
    -- Stationary point found.
 Normal termination of Gaussian 09 at Sat Nov  7 02:11:06 2015.

 --------------------------------------------------------------------
 #P Geom=AllCheck Guess=TCheck SCRF=Check GenChk UB3LYP/6-31G(d) Freq
 --------------------------------------------------------------------

 Structure from the checkpoint file:  "/state/partition1/Gau-1635.chk"
 ---------------------------------------------
 using B3LYP/6-31G(d) to do opt and freq calc.
 ---------------------------------------------
 Charge =  0 Multiplicity = 2

                         Standard orientation:
 ---------------------------------------------------------------------
 Center     Atomic      Atomic             Coordinates (Angstroms)
 Number     Number       Type             X           Y           Z
 ---------------------------------------------------------------------
      1          6           0        2.110810   -1.019561    0.005483
      2          1           0        1.894310   -2.003554   -0.427272
      3          1           0        2.204339   -1.147193    1.092036
      4          1           0        3.085938   -0.692211   -0.374476
      5          6           0        1.010091   -0.003132   -0.334296
      6          1           0        0.957764    0.079507   -1.431406
      7          6           0       -0.359222   -0.508756    0.160644
      8          1           0       -0.349399   -0.553269    1.260668
      9          1           0       -0.500039   -1.542388   -0.184069
     10          6           0       -1.570767    0.322278   -0.298350
     11          1           0       -1.565296    0.406327   -1.395994
     12          1           0       -1.459683    1.359991    0.067277
     13          6           0       -2.877100   -0.235389    0.159374
     14          1           0       -2.953359   -0.760534    1.107525
     15          1           0       -3.801959    0.011505   -0.352768
     16          6           0        1.367620    1.382215    0.226235
     17          1           0        0.638839    2.147131   -0.062778
     18          1           0        1.410680    1.359250    1.323392
     19          1           0        2.349273    1.709510   -0.136668
 ---------------------------------------------------------------------

 SCF Done:  E(UB3LYP) =  -236.411912153     A.U. after    1 cycles

 The electronic state is 2-A.
 Alpha  occ. eigenvalues --  -10.18508 -10.18325 -10.18238 -10.17571 -10.16981
 Alpha  occ. eigenvalues --  -10.16947  -0.80845  -0.75755  -0.67786  -0.66525
 Alpha  occ. eigenvalues --   -0.58506  -0.55439  -0.46431  -0.44715  -0.43583
 Alpha  occ. eigenvalues --   -0.40642  -0.40164  -0.38078  -0.37775  -0.35334
 Alpha  occ. eigenvalues --   -0.34357  -0.31823  -0.31671  -0.31325  -0.19439
 Alpha virt. eigenvalues --    0.08759   0.11889   0.12448   0.13093   0.14748
 Alpha virt. eigenvalues --    0.15696   0.15998   0.17095   0.18002   0.18903
 Alpha virt. eigenvalues --    0.20745   0.21611   0.21995   0.23821   0.25018

  Beta  occ. eigenvalues --  -10.18506 -10.18326 -10.17537 -10.16977 -10.16945
  Beta  occ. eigenvalues --  -10.16940  -0.80660  -0.74813  -0.67777  -0.65162
  Beta  occ. eigenvalues --   -0.56913  -0.55363  -0.46171  -0.44316  -0.43356
  Beta  occ. eigenvalues --   -0.40272  -0.39635  -0.37945  -0.37277  -0.35115
  Beta  occ. eigenvalues --   -0.34030  -0.31705  -0.31574  -0.31090
  Beta virt. eigenvalues --   -0.03385   0.08853   0.12002   0.12812   0.13632
  Beta virt. eigenvalues --    0.14979   0.15829   0.16246   0.17295   0.18183
  Beta virt. eigenvalues --    0.18983   0.20995   0.21789   0.22216   0.23914

 Mulliken charges and spin densities:
               1          2
     1  C   -0.441954   0.000267
     2  H    0.139812  -0.000038
     3  H    0.138239   0.000017
     4  H    0.138925   0.000269
     5  C   -0.066997   0.000642
     6  H    0.119736   0.000099
     7  C   -0.247456   0.011988
     8  H    0.125234  -0.000946
     9  H    0.132740   0.001595
    10  C   -0.266766  -0.077446
    11  H    0.138121   0.017059
    12  H    0.146643   0.056435
    13  C   -0.310642   1.090245
    14  H    0.139311  -0.051087
    15  H    0.138631  -0.051192
    16  C   -0.445095   0.000974
    17  H    0.143574   0.000002
    18  H    0.138029  -0.000002
    19  H    0.139914   0.001119
 Sum of Mulliken charges =   0.00000   1.00000

 Dipole moment (field-independent basis, Debye):
    X=              0.1802    Y=              0.1806    Z=             -0.0740  Tot=              0.2657
 Quadrupole moment (field-independent basis, Debye-Ang):
   XX=            -41.4534   YY=            -41.4211   ZZ=            -40.1856
   XY=             -0.3504   XZ=              0.0000   YZ=             -0.4747

  Exact polarizability:  74.771   1.125  58.690  -0.022  -2.280  56.439
 Approx polarizability:  86.525   2.171  79.026  -0.062  -3.234  82.639

                      1                      2                      3
                      A                      A                      A
 Frequencies --     70.7868               111.0057               119.5133
 Red. masses --      1.5210                 2.2354                 1.1566
 Frc consts  --      0.0045                 0.0162                 0.0097
 IR Inten    --      0.1701                 0.0436                 0.0971

                      4                      5                      6
                      A                      A                      A
 Frequencies --    183.7946               229.0427               254.1689
 Red. masses --      2.4624                 1.0595                 1.1125
 Frc consts  --      0.0490                 0.0327                 0.0423
 IR Inten    --      0.1546                 0.0042                 0.0021

                      7                      8                      9
                      A                      A                      A
 Frequencies --    324.7856               375.1046               440.0705
 Red. masses --      2.4781                 2.1683                 1.6719
 Frc consts  --      0.1540                 0.1798                 0.1908
 IR Inten    --      0.3508                 1.7493                12.0435

                     10                     11                     12
                      A                      A                      A
 Frequencies --    444.3162               465.4535               743.9011
 Red. masses --      2.3710                 1.6016                 1.2204
 Frc consts  --      0.2758                 0.2044                 0.3979
 IR Inten    --      3.4321                25.9365                 1.3989

                     13                     14                     15
                      A                      A                      A
 Frequencies --    829.1528               877.3734               937.6516
 Red. masses --      2.2393                 1.6348                 1.2024
 Frc consts  --      0.9071                 0.7414                 0.6228
 IR Inten    --      0.5616                 0.1553                 1.3225

                     16                     17                     18
                      A                      A                      A
 Frequencies --    965.5783               974.0061               980.2784
 Red. masses --      1.4297                 1.8335                 1.6058
 Frc consts  --      0.7854                 1.0248                 0.9092
 IR Inten    --      0.4446                 1.7664                 0.4428

                     19                     20                     21
                      A                      A                      A
 Frequencies --   1061.1636              1091.5011              1125.9889
 Red. masses --      1.8540                 2.5181                 1.6414
 Frc consts  --      1.2300                 1.7675                 1.2261
 IR Inten    --      0.5437                 0.6676                 0.7750

                     22                     23                     24
                      A                      A                      A
 Frequencies --   1185.2649              1204.4087              1237.6671
 Red. masses --      1.9724                 1.7358                 1.5003
 Frc consts  --      1.6326                 1.4835                 1.3540
 IR Inten    --      0.2852                 3.8614                 1.6357

                     25                     26                     27
                      A                      A                      A
 Frequencies --   1304.3802              1329.4574              1373.6639
 Red. masses --      1.3240                 1.1214                 1.3935
 Frc consts  --      1.3272                 1.1677                 1.5492
 IR Inten    --      2.9132                 0.4962                 1.9579

                     28                     29                     30
                      A                      A                      A
 Frequencies --   1387.9799              1412.7411              1429.7754
 Red. masses --      1.3482                 1.5638                 1.2654
 Frc consts  --      1.5303                 1.8389                 1.5241
 IR Inten    --      3.3700                 0.7494                 4.9739

                     31                     32                     33
                      A                      A                      A
 Frequencies --   1449.0045              1487.0994              1498.1292
 Red. masses --      1.2361                 1.1705                 1.0808
 Frc consts  --      1.5291                 1.5251                 1.4292
 IR Inten    --      3.4743                 1.1751                 0.6153

                     34                     35                     36
                      A                      A                      A
 Frequencies --   1515.7180              1520.4161              1527.6407
 Red. masses --      1.0707                 1.0475                 1.0679
 Frc consts  --      1.4492                 1.4267                 1.4683
 IR Inten    --      0.3196                 1.0304                 1.8377

                     37                     38                     39
                      A                      A                      A
 Frequencies --   1535.2838              1540.9980              2949.7391
 Red. masses --      1.0540                 1.0483                 1.0714
 Frc consts  --      1.4638                 1.4667                 5.4924
 IR Inten    --      3.0735                11.1192                27.7400

                     40                     41                     42
                      A                      A                      A
 Frequencies --   3001.5482              3013.7795              3023.6827
 Red. masses --      1.0812                 1.0712                 1.0758
 Frc consts  --      5.7394                 5.7325                 5.7951
 IR Inten    --      8.9116                 7.5534                47.4252

                     43                     44                     45
                      A                      A                      A
 Frequencies --   3034.5808              3040.5425              3060.3249
 Red. masses --      1.0362                 1.0380                 1.1016
 Frc consts  --      5.6220                 5.6539                 6.0786
 IR Inten    --     31.5063                29.8436                46.9494

                     46                     47                     48
                      A                      A                      A
 Frequencies --   3096.7140              3103.0347              3108.0719
 Red. masses --      1.1012                 1.1007                 1.1023
 Frc consts  --      6.2219                 6.2442                 6.2738
 IR Inten    --      4.9741                75.8586                45.1988

                     49                     50                     51
                      A                      A                      A
 Frequencies --   3114.7732              3160.1631              3257.4170
 Red. masses --      1.1007                 1.0510                 1.1181
 Frc consts  --      6.2919                 6.1842                 6.9903
 IR Inten    --     43.8159                20.5997                20.2380

 - Thermochemistry -
 -------------------
 Temperature   298.150 Kelvin.  Pressure   1.00000 Atm.
 Atom     1 has atomic number  6 and mass  12.00000

 Molecular mass:    85.10173 amu.
 Principal axes and moments of inertia in atomic units:
                           1         2         3
     Eigenvalues --   267.937631028.260141196.38947
           X            1.00000  -0.00242   0.00154
           Y            0.00244   0.99993  -0.01170
           Z           -0.00151   0.01171   0.99993
 This molecule is an asymmetric top.
 Rotational symmetry number  1.
 Rotational temperatures (Kelvin)      0.32326     0.08423     0.07240
 Rotational constants (GHZ):           6.73568     1.75514     1.50849
 Zero-point vibrational energy     457623.3 (Joules/Mol)
                                  109.37459 (Kcal/Mol)
 Warning -- explicit consideration of  11 degrees of freedom as
           vibrations may cause significant error
 Vibrational temperatures:    101.85   159.71   171.95   264.44   329.54
          (Kelvin)            365.69   467.29   539.69   633.16   639.27
                              669.68  1070.31  1192.96  1262.34  1349.07
                             1389.25  1401.38  1410.40  1526.78  1570.42
                             1620.04  1705.33  1732.87  1780.72  1876.71
                             1912.79  1976.39  1996.99  2032.62  2057.13
                             2084.79  2139.60  2155.47  2180.78  2187.54
                             2197.93  2208.93  2217.15  4244.01  4318.55
                             4336.15  4350.40  4366.08  4374.66  4403.12
                             4455.48  4464.57  4471.82  4481.46  4546.76
                             4686.69

 Zero-point correction=                           0.174300 (Hartree/Particle)
 Thermal correction to Energy=                    0.183046
 Thermal correction to Enthalpy=                  0.183990
 Thermal correction to Gibbs Free Energy=         0.140960
 Sum of electronic and zero-point Energies=           -236.237613
 Sum of electronic and thermal Energies=              -236.228866
 Sum of electronic and thermal Enthalpies=            -236.227922
 Sum of electronic and thermal Free Energies=         -236.270952

                     E (Thermal)             CV                S
                      KCal/Mol        Cal/Mol-Kelvin    Cal/Mol-Kelvin
 Total                  114.863             30.752             90.565
 Electronic               0.000              0.000              1.377
 Translational            0.889              2.981             39.237
 Rotational               0.889              2.981             27.291
 Vibrational            113.085             24.791             22.659
 Vibration     1          0.598              1.968              4.131
 Vibration     2          0.607              1.940              3.251
 Vibration     3          0.609              1.933              3.108
 Vibration     4          0.631              1.862              2.290
 Vibration     5          0.652              1.797              1.886
 Vibration     6          0.665              1.756              1.701
 Vibration     7          0.709              1.626              1.286
 Vibration     8          0.746              1.523              1.059
 Vibration     9          0.800              1.383              0.826
 Vibration    10          0.804              1.373              0.813
 Vibration    11          0.823              1.327              0.750

 Optimization completed.
    -- Stationary point found.
 Normal termination of Gaussian 09 at Sat Nov  7 02:18:12 2015.
