 Gaussian 09, Revision A.01,
 Gaussian 09:  EM64L-G09RevA.01  8-May-2009

 ----------
 #p PM6 opt
 ----------

 ----------------------------------
 using PM6 to do opt and freq calc.
 ----------------------------------
 Symbolic Z-matrix:
 Charge =  0 Multiplicity = 1

 SCF Done:  E(RPM6) = -0.459293836464E-01 A.U. after   13 cycles
 SCF Done:  E(RPM6) = -0.540212083221E-01 A.U. after   12 cycles
 SCF Done:  E(RPM6) = -0.563288530038E-01 A.U. after   12 cycles
 SCF Done:  E(RPM6) = -0.566532889450E-01 A.U. after   10 cycles
 SCF Done:  E(RPM6) = -0.567167036141E-01 A.U. after   11 cycles
 SCF Done:  E(RPM6) = -0.567212779010E-01 A.U. after   10 cycles
 SCF Done:  E(RPM6) = -0.567222416723E-01 A.U. after    9 cycles
 SCF Done:  E(RPM6) = -0.567224883622E-01 A.U. after    9 cycles
 SCF Done:  E(RPM6) = -0.567225466834E-01 A.U. after    8 cycles
 Optimization completed.
    -- Stationary point found.

                         Standard orientation:
 ---------------------------------------------------------------------
 Center     Atomic      Atomic             Coordinates (Angstroms)
 Number     Number       Type             X           Y           Z
 ---------------------------------------------------------------------
      1          6           0       -2.531560   -0.223903   -0.368469
      2          1           0       -2.464851   -0.438845   -1.440946
      3          1           0       -2.722300    0.850259   -0.261207
      4          1           0       -3.408522   -0.753400    0.019908
      5          6           0       -1.262921   -0.645275    0.369268
      6          1           0       -1.373687   -0.443068    1.451689
      7          1           0       -1.138316   -1.742352    0.279703
      8          6           0        0.000003    0.064394   -0.169026
      9          1           0        0.000014   -0.014629   -1.283886
     10          6           0        1.262935   -0.645242    0.369295
     11          1           0        1.138336   -1.742325    0.279794
     12          1           0        1.373711   -0.442974    1.451703
     13          6           0        2.531563   -0.223903   -0.368480
     14          1           0        2.722255    0.850281   -0.261345
     15          1           0        3.408544   -0.753315    0.019968
     16          1           0        2.464873   -0.438976   -1.440932
     17          6           0       -0.000017    1.550106    0.211009
     18          1           0       -0.883542    2.060878   -0.186515
     19          1           0       -0.000097    1.690544    1.296869
     20          1           0        0.883572    2.060869   -0.186384
 ---------------------------------------------------------------------

 The electronic state is 1-A.
 Alpha  occ. eigenvalues --   -1.06408  -0.97887  -0.91119  -0.84287  -0.75442
 Alpha  occ. eigenvalues --   -0.70782  -0.58111  -0.56971  -0.53837  -0.52592
 Alpha  occ. eigenvalues --   -0.49814  -0.48733  -0.47275  -0.45862  -0.45630
 Alpha  occ. eigenvalues --   -0.42574  -0.40991  -0.40680  -0.40508
 Alpha virt. eigenvalues --    0.15293   0.15706   0.16906   0.17810   0.18451
 Alpha virt. eigenvalues --    0.21201   0.21227   0.22022   0.22078   0.22335
 Alpha virt. eigenvalues --    0.22722   0.23158   0.23164   0.23675   0.24618

 Mulliken atomic charges:
              1
     1  C   -0.454430
     2  H    0.144645
     3  H    0.146291
     4  H    0.141589
     5  C   -0.262918
     6  H    0.131117
     7  H    0.127451
     8  C   -0.018938
     9  H    0.116781
    10  C   -0.262918
    11  H    0.127451
    12  H    0.131117
    13  C   -0.454430
    14  H    0.146291
    15  H    0.141589
    16  H    0.144645
    17  C   -0.487049
    18  H    0.146942
    19  H    0.147831
    20  H    0.146942
 Sum of Mulliken atomic charges =   0.00000

 Dipole moment (field-independent basis, Debye):
    X=              0.0000    Y=              0.0622    Z=              0.0008  Tot=              0.0622
 N-N= 1.670492133367D+02 E-N=-2.549900615947D+02  KE=-5.623174066291D+01
 Leave Link  601 at Sun Sep 13 11:20:42 2015, MaxMem=  671088640 cpu:       0.0
 (Enter /share/apps/g09/l9999.exe)
 1\1\GINC-COMPUTE-0-14\FOpt\RPM6\ZDO\C6H14\HETANJIN\13-Sep-2015\0\\#p P
 M6 opt\\using PM6 to do opt and freq calc.\\0,1\C,-3.5737314207,0.0071
 941068,0.1040773044\H,-3.1863600378,-1.0140538758,0.1926964675\H,-3.31
 93556998,0.3677848714,-0.899406081\H,-4.6661538548,-0.0481128647,0.165
 8692773\C,-3.0066519282,0.9196304859,1.1890360738\H,-3.4392861432,1.93
 34877343,1.0904813433\H,-3.3316664528,0.5493446183,2.181195448\C,-1.46
 40041148,1.0027771711,1.1479018782\H,-1.0571051282,-0.0360601277,1.081

 Normal termination of Gaussian 09 at Sun Sep 13 11:20:46 2015.
