 Gaussian 09, Revision A.01,
 Gaussian 09:  EM64L-G09RevA.01  8-May-2009

 -----------------------------------------
 #p B3LYP/6-31G(d) opt=tight int=ultrafine
 -----------------------------------------

 ---------------------------------------------
 using B3LYP/6-31G(d) to do opt and freq calc.
 ---------------------------------------------
 Symbolic Z-matrix:
 Charge =  0 Multiplicity = 1

 SCF Done:  E(RB3LYP) =  -237.081483510     A.U. after   11 cycles
 SCF Done:  E(RB3LYP) =  -237.082354894     A.U. after   12 cycles
 SCF Done:  E(RB3LYP) =  -237.082496276     A.U. after   12 cycles
 SCF Done:  E(RB3LYP) =  -237.082507493     A.U. after   11 cycles
 SCF Done:  E(RB3LYP) =  -237.082508721     A.U. after   12 cycles
 SCF Done:  E(RB3LYP) =  -237.082508740     A.U. after   11 cycles
 SCF Done:  E(RB3LYP) =  -237.082505735     A.U. after   11 cycles
 SCF Done:  E(RB3LYP) =  -237.082512830     A.U. after    9 cycles
 SCF Done:  E(RB3LYP) =  -237.082512841     A.U. after    5 cycles
 SCF Done:  E(RB3LYP) =  -237.082512841     A.U. after   12 cycles
 Optimization completed.
    -- Stationary point found.

                         Standard orientation:
 ---------------------------------------------------------------------
 Center     Atomic      Atomic             Coordinates (Angstroms)
 Number     Number       Type             X           Y           Z
 ---------------------------------------------------------------------
      1          6           0        0.000004    1.518469   -1.254742
      2          1           0       -0.349202    1.042219   -2.175878
      3          1           0        1.085023    1.664691   -1.342941
      4          1           0       -0.462224    2.511330   -1.204123
      5          6           0       -0.342970    0.696632   -0.000002
      6          1           0       -1.431421    0.522513   -0.000006
      7          6           0        0.342970   -0.696632   -0.000002
      8          1           0        1.431421   -0.522513   -0.000006
      9          6           0        0.000004   -1.518461    1.254744
     10          1           0       -1.085015   -1.664687    1.342947
     11          1           0        0.462235   -2.511321    1.204131
     12          1           0        0.349211   -1.042203    2.175875
     13          6           0       -0.000004    1.518461    1.254744
     14          1           0       -0.349211    1.042203    2.175875
     15          1           0        1.085015    1.664687    1.342947
     16          1           0       -0.462235    2.511321    1.204131
     17          6           0       -0.000004   -1.518469   -1.254742
     18          1           0       -1.085023   -1.664691   -1.342941
     19          1           0        0.349202   -1.042219   -2.175878
     20          1           0        0.462224   -2.511330   -1.204123
 ---------------------------------------------------------------------

 The electronic state is 1-A.
 Alpha  occ. eigenvalues --  -10.18292 -10.18273 -10.16768 -10.16768 -10.16767
 Alpha  occ. eigenvalues --  -10.16767  -0.81124  -0.74151  -0.68615  -0.66279
 Alpha  occ. eigenvalues --   -0.60292  -0.54324  -0.45147  -0.44959  -0.42539
 Alpha  occ. eigenvalues --   -0.41624  -0.38760  -0.38358  -0.37339  -0.35833
 Alpha  occ. eigenvalues --   -0.35052  -0.33586  -0.31391  -0.30731  -0.30210
 Alpha virt. eigenvalues --    0.08375   0.11728   0.12948   0.13407   0.14207
 Alpha virt. eigenvalues --    0.16116   0.16416   0.17885   0.17995   0.18740
 Alpha virt. eigenvalues --    0.18869   0.20584   0.20628   0.23733   0.23786

 Mulliken atomic charges:
              1
     1  C   -0.450202
     2  H    0.144946
     3  H    0.137181
     4  H    0.138206
     5  C   -0.054905
     6  H    0.114643
     7  C   -0.054905
     8  H    0.114643
     9  C   -0.450202
    10  H    0.137181
    11  H    0.138206
    12  H    0.144946
    13  C   -0.450202
    14  H    0.144946
    15  H    0.137181
    16  H    0.138206
    17  C   -0.450202
    18  H    0.137181
    19  H    0.144946
    20  H    0.138206
 Sum of Mulliken atomic charges =   0.00000

 Dipole moment (field-independent basis, Debye):
    X=              0.0000    Y=              0.0000    Z=              0.0000  Tot=              0.0000
 Quadrupole moment (field-independent basis, Debye-Ang):
   XX=            -41.1500   YY=            -41.8649   ZZ=            -42.0234
   XY=             -0.2363   XZ=              0.0000   YZ=              0.0000

 Normal termination of Gaussian 09 at Fri Sep 18 13:52:17 2015.
