 Gaussian 09, Revision D.01,
 Gaussian 09:  ES64L-G09RevD.01 24-Apr-2013

 ----------------------------------------------
 #p B3LYP/6-31G(d) opt=tight int=ultrafine freq
 ----------------------------------------------

 ---------------------------------------------
 using B3LYP/6-31G(d) to do opt and freq calc.
 ---------------------------------------------
 Symbolic Z-matrix:
 Charge =  0 Multiplicity = 2

 SCF Done:  E(UB3LYP) =  -236.406172601     A.U. after   14 cycles
 SCF Done:  E(UB3LYP) =  -236.414131135     A.U. after   13 cycles
 SCF Done:  E(UB3LYP) =  -236.416315941     A.U. after   13 cycles
 SCF Done:  E(UB3LYP) =  -236.416537485     A.U. after   12 cycles
 SCF Done:  E(UB3LYP) =  -236.416600163     A.U. after   10 cycles
 SCF Done:  E(UB3LYP) =  -236.416649811     A.U. after   11 cycles
 SCF Done:  E(UB3LYP) =  -236.416711391     A.U. after   12 cycles
 SCF Done:  E(UB3LYP) =  -236.416761663     A.U. after   12 cycles
 SCF Done:  E(UB3LYP) =  -236.416701418     A.U. after   12 cycles
 SCF Done:  E(UB3LYP) =  -236.416641039     A.U. after   12 cycles
 SCF Done:  E(UB3LYP) =  -236.417561843     A.U. after   12 cycles
 SCF Done:  E(UB3LYP) =  -236.417627305     A.U. after   11 cycles
 SCF Done:  E(UB3LYP) =  -236.417641756     A.U. after   10 cycles
 SCF Done:  E(UB3LYP) =  -236.417644124     A.U. after   10 cycles
 SCF Done:  E(UB3LYP) =  -236.417644324     A.U. after    8 cycles
 SCF Done:  E(UB3LYP) =  -236.417644421     A.U. after    7 cycles
 SCF Done:  E(UB3LYP) =  -236.417644451     A.U. after    7 cycles
 SCF Done:  E(UB3LYP) =  -236.417644458     A.U. after    6 cycles
 SCF Done:  E(UB3LYP) =  -236.417644459     A.U. after    5 cycles
 Optimization completed.
    -- Stationary point found.
 Normal termination of Gaussian 09 at Sat Nov  7 02:25:45 2015.

 --------------------------------------------------------------------
 #P Geom=AllCheck Guess=TCheck SCRF=Check GenChk UB3LYP/6-31G(d) Freq
 --------------------------------------------------------------------

 Structure from the checkpoint file:  "/state/partition1/Gau-2869.chk"
 ---------------------------------------------
 using B3LYP/6-31G(d) to do opt and freq calc.
 ---------------------------------------------
 Charge =  0 Multiplicity = 2

                         Standard orientation:
 ---------------------------------------------------------------------
 Center     Atomic      Atomic             Coordinates (Angstroms)
 Number     Number       Type             X           Y           Z
 ---------------------------------------------------------------------
      1          6           0        2.620762   -0.332642    0.300546
      2          1           0        2.534296   -0.367579    1.395175
      3          1           0        3.076235    0.644958    0.056533
      4          1           0        3.345682   -1.096197   -0.006392
      5          6           0        1.296779   -0.530532   -0.361168
      6          1           0        1.284770   -0.899853   -1.386601
      7          6           0        0.030941    0.073895    0.175212
      8          1           0        0.058615    0.001532    1.275660
      9          6           0       -1.204534   -0.710621   -0.319532
     10          1           0       -1.036104   -1.776605   -0.117204
     11          1           0       -1.268407   -0.615111   -1.413729
     12          6           0       -2.536239   -0.286903    0.309849
     13          1           0       -2.804188    0.744232    0.054714
     14          1           0       -3.352607   -0.931754   -0.035283
     15          1           0       -2.497692   -0.359390    1.404140
     16          6           0       -0.058833    1.580711   -0.175735
     17          1           0        0.829339    2.118051    0.174749
     18          1           0       -0.128886    1.721403   -1.261632
     19          1           0       -0.934310    2.052867    0.284840
 ---------------------------------------------------------------------

 SCF Done:  E(UB3LYP) =  -236.417644459     A.U. after    1 cycles

 The electronic state is 2-A.
 Alpha  occ. eigenvalues --  -10.18421 -10.18063 -10.17597 -10.17532 -10.17105
 Alpha  occ. eigenvalues --  -10.17006  -0.80839  -0.74537  -0.70734  -0.64754
 Alpha  occ. eigenvalues --   -0.58942  -0.54702  -0.45624  -0.44598  -0.42077
 Alpha  occ. eigenvalues --   -0.41202  -0.39834  -0.38596  -0.37526  -0.36234
 Alpha  occ. eigenvalues --   -0.34975  -0.32251  -0.31836  -0.31120  -0.17754
 Alpha virt. eigenvalues --    0.09081   0.11801   0.12023   0.14136   0.15133
 Alpha virt. eigenvalues --    0.15783   0.16602   0.17440   0.17932   0.18325
 Alpha virt. eigenvalues --    0.19460   0.20424   0.22701   0.23755   0.25254

  Beta  occ. eigenvalues --  -10.18501 -10.17687 -10.17499 -10.17003 -10.16978
  Beta  occ. eigenvalues --  -10.16690  -0.80074  -0.73678  -0.70420  -0.64374
  Beta  occ. eigenvalues --   -0.58041  -0.53703  -0.45450  -0.44110  -0.41666
  Beta  occ. eigenvalues --   -0.40240  -0.39417  -0.38176  -0.37376  -0.35970
  Beta  occ. eigenvalues --   -0.34742  -0.31976  -0.31413  -0.30896
  Beta virt. eigenvalues --   -0.02809   0.09176   0.11900   0.12267   0.14323
  Beta virt. eigenvalues --    0.15299   0.16129   0.16868   0.17653   0.18114
  Beta virt. eigenvalues --    0.18630   0.19842   0.20848   0.22890   0.23942

 Mulliken charges and spin densities:
               1          2
     1  C   -0.477319  -0.082168
     2  H    0.148107   0.016638
     3  H    0.150375   0.064917
     4  H    0.151228   0.012248
     5  C   -0.096770   1.026308
     6  H    0.118690  -0.048568
     7  C   -0.082832  -0.069328
     8  H    0.117623   0.013841
     9  C   -0.249625   0.011484
    10  H    0.134524   0.001299
    11  H    0.126583  -0.000890
    12  C   -0.449451   0.001019
    13  H    0.145525   0.000407
    14  H    0.142077   0.000580
    15  H    0.140788   0.000078
    16  C   -0.445186   0.042170
    17  H    0.142880  -0.002268
    18  H    0.139190  -0.000480
    19  H    0.143592   0.012712
 Sum of Mulliken charges =   0.00000   1.00000

 Dipole moment (field-independent basis, Debye):
    X=              0.0885    Y=              0.1418    Z=              0.0135  Tot=              0.1677
 Quadrupole moment (field-independent basis, Debye-Ang):
   XX=            -40.3550   YY=            -41.3344   ZZ=            -40.1690
   XY=              0.1613   XZ=              0.1204   YZ=              0.2521

  Exact polarizability:  75.106  -0.567  59.259   0.369   1.797  57.362
 Approx polarizability:  87.174  -0.992  80.012   0.611   2.792  83.286

                      1                      2                      3
                      A                      A                      A
 Frequencies --     47.7225                85.7772               110.4145
 Red. masses --      1.7445                 1.6719                 1.3083
 Frc consts  --      0.0023                 0.0072                 0.0094
 IR Inten    --      0.0634                 0.0120                 0.1186

                      4                      5                      6
                      A                      A                      A
 Frequencies --    198.2390               222.0312               257.1541
 Red. masses --      2.0447                 1.0483                 1.2421
 Frc consts  --      0.0473                 0.0304                 0.0484
 IR Inten    --      0.1067                 0.0194                 0.7906

                      7                      8                      9
                      A                      A                      A
 Frequencies --    295.9645               348.2764               412.1591
 Red. masses --      2.0230                 1.6487                 2.7279
 Frc consts  --      0.1044                 0.1178                 0.2730
 IR Inten    --      0.6075                 2.3518                 3.1025

                     10                     11                     12
                      A                      A                      A
 Frequencies --    461.1239               508.9810               773.1233
 Red. masses --      2.2516                 1.9907                 1.4620
 Frc consts  --      0.2821                 0.3038                 0.5149
 IR Inten    --      0.9574                13.2061                 2.3189

                     13                     14                     15
                      A                      A                      A
 Frequencies --    825.3528               896.1694               958.5332
 Red. masses --      1.5224                 2.1070                 1.7075
 Frc consts  --      0.6110                 0.9970                 0.9243
 IR Inten    --      0.5564                 0.2767                 3.7017

                     16                     17                     18
                      A                      A                      A
 Frequencies --    977.4743               997.7290              1030.9504
 Red. masses --      1.2672                 1.3044                 1.5117
 Frc consts  --      0.7134                 0.7651                 0.9467
 IR Inten    --      0.9591                 5.7909                 3.1977

                     19                     20                     21
                      A                      A                      A
 Frequencies --   1051.6487              1110.3898              1137.0355
 Red. masses --      2.0521                 2.2264                 2.0698
 Frc consts  --      1.3372                 1.6173                 1.5766
 IR Inten    --      0.4651                 1.0671                 0.3062

                     22                     23                     24
                      A                      A                      A
 Frequencies --   1190.3153              1199.5164              1291.4890
 Red. masses --      1.8056                 2.1930                 1.3091
 Frc consts  --      1.5072                 1.8591                 1.2864
 IR Inten    --      3.8890                 1.6461                 8.3761

                     25                     26                     27
                      A                      A                      A
 Frequencies --   1316.3951              1357.8303              1384.2626
 Red. masses --      1.2131                 1.2290                 1.3808
 Frc consts  --      1.2386                 1.3350                 1.5589
 IR Inten    --      1.6487                 2.6722                 0.3179

                     28                     29                     30
                      A                      A                      A
 Frequencies --   1421.2844              1431.2860              1438.1165
 Red. masses --      1.4021                 1.2586                 1.4191
 Frc consts  --      1.6688                 1.5191                 1.7292
 IR Inten    --      1.8174                 1.8736                 2.0417

                     31                     32                     33
                      A                      A                      A
 Frequencies --   1441.4069              1504.0480              1514.2987
 Red. masses --      1.2379                 1.0621                 1.0657
 Frc consts  --      1.5153                 1.4156                 1.4398
 IR Inten    --      1.3769                 5.8277                 0.2721

                     34                     35                     36
                      A                      A                      A
 Frequencies --   1517.1098              1525.5566              1527.6407
 Red. masses --      1.0490                 1.0477                 1.0564
 Frc consts  --      1.4225                 1.4366                 1.4525
 IR Inten    --      4.7305                 5.7179                 2.6147

                     37                     38                     39
                      A                      A                      A
 Frequencies --   1535.6571              1541.4174              2956.7237
 Red. masses --      1.0627                 1.0482                 1.0606
 Frc consts  --      1.4766                 1.4673                 5.4628
 IR Inten    --      6.0609                 1.8572                37.3302

                     40                     41                     42
                      A                      A                      A
 Frequencies --   2981.6542              3023.0967              3040.7602
 Red. masses --      1.0819                 1.0629                 1.0351
 Frc consts  --      5.6669                 5.7233                 5.6387
 IR Inten    --     20.2377                32.5674                20.4851

                     43                     44                     45
                      A                      A                      A
 Frequencies --   3044.7165              3047.6925              3061.3541
 Red. masses --      1.0374                 1.0711                 1.0993
 Frc consts  --      5.6664                 5.8616                 6.0702
 IR Inten    --     32.9994                30.2235                23.2580

                     46                     47                     48
                      A                      A                      A
 Frequencies --   3096.3897              3106.1893              3107.5403
 Red. masses --      1.0999                 1.1014                 1.1023
 Frc consts  --      6.2131                 6.2614                 6.2716
 IR Inten    --     24.9386                35.1202                47.9333

                     49                     50                     51
                      A                      A                      A
 Frequencies --   3112.6035              3119.1119              3154.2889
 Red. masses --      1.1019                 1.1013                 1.0869
 Frc consts  --      6.2899                 6.3128                 6.3716
 IR Inten    --     47.2037                38.0111                34.9758

 - Thermochemistry -
 -------------------
 Temperature   298.150 Kelvin.  Pressure   1.00000 Atm.
 Atom     1 has atomic number  6 and mass  12.00000

 Molecular mass:    85.10173 amu.
 Principal axes and moments of inertia in atomic units:
                           1         2         3
     Eigenvalues --   279.57358 975.181951133.04900
           X            1.00000   0.00197   0.00163
           Y           -0.00198   0.99999   0.00487
           Z           -0.00162  -0.00487   0.99999
 This molecule is an asymmetric top.
 Rotational symmetry number  1.
 Rotational temperatures (Kelvin)      0.30981     0.08882     0.07644
 Rotational constants (GHZ):           6.45534     1.85067     1.59282
 Zero-point vibrational energy     458744.0 (Joules/Mol)
                                  109.64244 (Kcal/Mol)
 Warning -- explicit consideration of  11 degrees of freedom as
           vibrations may cause significant error
 Vibrational temperatures:     68.66   123.41   158.86   285.22   319.45
          (Kelvin)            369.99   425.83   501.09   593.00   663.45
                              732.31  1112.35  1187.50  1289.39  1379.11
                             1406.37  1435.51  1483.31  1513.09  1597.60
                             1635.94  1712.60  1725.83  1858.16  1894.00
                             1953.61  1991.64  2044.91  2059.30  2069.13
                             2073.86  2163.99  2178.74  2182.78  2194.93
                             2197.93  2209.47  2217.75  4254.06  4289.93
                             4349.56  4374.97  4380.66  4384.94  4404.60
                             4455.01  4469.11  4471.05  4478.34  4487.70
                             4538.31

 Zero-point correction=                           0.174726 (Hartree/Particle)
 Thermal correction to Energy=                    0.183573
 Thermal correction to Enthalpy=                  0.184517
 Thermal correction to Gibbs Free Energy=         0.140840
 Sum of electronic and zero-point Energies=           -236.242918
 Sum of electronic and thermal Energies=              -236.234072
 Sum of electronic and thermal Enthalpies=            -236.233128
 Sum of electronic and thermal Free Energies=         -236.276805

                     E (Thermal)             CV                S
                      KCal/Mol        Cal/Mol-Kelvin    Cal/Mol-Kelvin
 Total                  115.194             30.525             91.926
 Electronic               0.000              0.000              1.377
 Translational            0.889              2.981             39.237
 Rotational               0.889              2.981             27.226
 Vibrational            113.416             24.563             24.085
 Vibration     1          0.595              1.978              4.910
 Vibration     2          0.601              1.959              3.754
 Vibration     3          0.606              1.941              3.262
 Vibration     4          0.637              1.842              2.149
 Vibration     5          0.648              1.808              1.942
 Vibration     6          0.667              1.751              1.681
 Vibration     7          0.690              1.681              1.440
 Vibration     8          0.726              1.579              1.174
 Vibration     9          0.776              1.444              0.919
 Vibration    10          0.819              1.336              0.763
 Vibration    11          0.864              1.230              0.636

 Normal termination of Gaussian 09 at Sat Nov  7 02:32:56 2015.
