 Gaussian 09, Revision A.01,
 Gaussian 09:  EM64L-G09RevA.01  8-May-2009

 ----------
 #p PM6 opt
 ----------

 ----------------------------------
 using PM6 to do opt and freq calc.
 ----------------------------------
 Symbolic Z-matrix:
 Charge =  0 Multiplicity = 1

 SCF Done:  E(RPM6) = -0.538317758924E-01 A.U. after   13 cycles
 SCF Done:  E(RPM6) = -0.560981635311E-01 A.U. after   11 cycles
 SCF Done:  E(RPM6) = -0.562664309253E-01 A.U. after   11 cycles
 SCF Done:  E(RPM6) = -0.563083266553E-01 A.U. after   10 cycles
 SCF Done:  E(RPM6) = -0.563285552010E-01 A.U. after   10 cycles
 SCF Done:  E(RPM6) = -0.563381741683E-01 A.U. after   10 cycles
 SCF Done:  E(RPM6) = -0.563414782054E-01 A.U. after    9 cycles
 SCF Done:  E(RPM6) = -0.563429166365E-01 A.U. after    9 cycles
 SCF Done:  E(RPM6) = -0.563431754393E-01 A.U. after    8 cycles
 SCF Done:  E(RPM6) = -0.563432294311E-01 A.U. after    8 cycles
 Optimization completed.
    -- Stationary point found.

                         Standard orientation:
 ---------------------------------------------------------------------
 Center     Atomic      Atomic             Coordinates (Angstroms)
 Number     Number       Type             X           Y           Z
 ---------------------------------------------------------------------
      1          6           0        2.962469    0.522776    0.121835
      2          1           0        3.069335    0.534160    1.212421
      3          1           0        2.806670    1.557961   -0.202259
      4          1           0        3.917088    0.187324   -0.298189
      5          6           0        1.815490   -0.383240   -0.320975
      6          1           0        1.759582   -0.401291   -1.426931
      7          1           0        2.023049   -1.426260   -0.011909
      8          6           0        0.471402    0.076106    0.261396
      9          1           0        0.264322    1.118647   -0.048045
     10          1           0        0.528042    0.098135    1.366362
     11          6           0       -0.677985   -0.837022   -0.185187
     12          1           0       -0.465242   -1.879435    0.122207
     13          1           0       -0.735798   -0.855844   -1.290513
     14          6           0       -2.031463   -0.405320    0.398179
     15          1           0       -1.937207   -0.247796    1.490514
     16          1           0       -2.758604   -1.232719    0.276399
     17          6           0       -2.586228    0.857084   -0.258404
     18          1           0       -2.731526    0.719639   -1.335764
     19          1           0       -3.553529    1.136647    0.172704
     20          1           0       -1.908295    1.708530   -0.128062
 ---------------------------------------------------------------------

 The electronic state is 1-A.
 Alpha  occ. eigenvalues --   -1.05608  -1.00007  -0.90946  -0.82318  -0.74682
 Alpha  occ. eigenvalues --   -0.72445  -0.59227  -0.56599  -0.54558  -0.51884
 Alpha  occ. eigenvalues --   -0.51560  -0.48744  -0.46900  -0.45624  -0.44065
 Alpha  occ. eigenvalues --   -0.42743  -0.41696  -0.40823  -0.40364
 Alpha virt. eigenvalues --    0.15266   0.15857   0.16863   0.17536   0.18484
 Alpha virt. eigenvalues --    0.20532   0.21137   0.21651   0.22086   0.22232
 Alpha virt. eigenvalues --    0.22768   0.22980   0.23596   0.24092   0.24463

 Mulliken atomic charges:
              1
     1  C   -0.463672
     2  H    0.146292
     3  H    0.146280
     4  H    0.143566
     5  C   -0.224037
     6  H    0.125764
     7  H    0.125289
     8  C   -0.259831
     9  H    0.133166
    10  H    0.130617
    11  C   -0.266597
    12  H    0.126953
    13  H    0.132727
    14  C   -0.220344
    15  H    0.126546
    16  H    0.122451
    17  C   -0.459664
    18  H    0.145666
    19  H    0.141569
    20  H    0.147257
 Sum of Mulliken atomic charges =   0.00000

 Dipole moment (field-independent basis, Debye):
    X=              0.0069    Y=              0.0669    Z=             -0.0067  Tot=              0.0676
 N-N= 1.627607493302D+02 E-N=-2.465289300128D+02  KE=-5.608936551089D+01
 Leave Link  601 at Mon Sep 14 19:14:21 2015, MaxMem=  402653184 cpu:       0.1
 (Enter /share/apps/g09/l9999.exe)
 1\1\GINC-COMPUTE-0-10\FOpt\RPM6\ZDO\C6H14\HETANJIN\14-Sep-2015\0\\#p P
 M6 opt\\using PM6 to do opt and freq calc.\\0,1\C,0.0248727204,4.11511
 92665,1.2264677499\H,0.0025797498,3.9480845698,2.3093015816\H,-0.90234
 2746,4.6330320029,0.956363636\H,0.8555157193,4.7979167877,1.0165490295
 \C,0.1802066727,2.8040350669,0.4587205268\H,0.2370077879,3.0119883032,
 -0.6276133329\H,1.143322403,2.3269654275,0.7257539488\C,-0.9779265065,
 1.8377216878,0.7445365687\H,-1.9403550251,2.3150026423,0.4772140683\H,

 Normal termination of Gaussian 09 at Mon Sep 14 19:14:22 2015.
