 Gaussian 09, Revision A.01,
 Gaussian 09:  EM64L-G09RevA.01  8-May-2009

 ----------
 #p PM6 opt
 ----------

 ----------------------------------
 using PM6 to do opt and freq calc.
 ----------------------------------
 Symbolic Z-matrix:
 Charge =  0 Multiplicity = 1

 SCF Done:  E(RPM6) = -0.539364694904E-01 A.U. after   12 cycles
 SCF Done:  E(RPM6) = -0.563209987632E-01 A.U. after   10 cycles
 SCF Done:  E(RPM6) = -0.565054721341E-01 A.U. after   11 cycles
 SCF Done:  E(RPM6) = -0.565505788942E-01 A.U. after   15 cycles
 SCF Done:  E(RPM6) = -0.565701657033E-01 A.U. after   10 cycles
 SCF Done:  E(RPM6) = -0.565755864636E-01 A.U. after    9 cycles
 SCF Done:  E(RPM6) = -0.565773382675E-01 A.U. after    8 cycles
 SCF Done:  E(RPM6) = -0.565777609833E-01 A.U. after    8 cycles
 SCF Done:  E(RPM6) = -0.565778335302E-01 A.U. after    7 cycles
 SCF Done:  E(RPM6) = -0.565778662437E-01 A.U. after   15 cycles
 Optimization completed.
    -- Stationary point found.

                         Standard orientation:
 ---------------------------------------------------------------------
 Center     Atomic      Atomic             Coordinates (Angstroms)
 Number     Number       Type             X           Y           Z
 ---------------------------------------------------------------------
      1          6           0        3.002241   -0.348980   -0.106807
      2          1           0        3.500518    0.589572    0.160756
      3          1           0        3.067327   -0.455104   -1.195526
      4          1           0        3.581278   -1.166007    0.337599
      5          6           0        1.553257   -0.374041    0.374964
      6          1           0        1.091893   -1.349465    0.124261
      7          1           0        1.524187   -0.302841    1.479702
      8          6           0        0.728364    0.764706   -0.241285
      9          1           0        0.761280    0.696945   -1.345619
     10          1           0        1.195489    1.736795    0.010535
     11          6           0       -0.728364    0.764706    0.241284
     12          1           0       -1.195491    1.736794   -0.010540
     13          1           0       -0.761280    0.696950    1.345619
     14          6           0       -1.553256   -0.374044   -0.374961
     15          1           0       -1.091893   -1.349467   -0.124249
     16          1           0       -1.524181   -0.302852   -1.479699
     17          6           0       -3.002241   -0.348979    0.106805
     18          1           0       -3.500519    0.589569   -0.160772
     19          1           0       -3.581276   -1.166012   -0.337593
     20          1           0       -3.067332   -0.455089    1.195525
 ---------------------------------------------------------------------

 The electronic state is 1-A.
 Alpha  occ. eigenvalues --   -1.05701  -0.99732  -0.91688  -0.80573  -0.76439
 Alpha  occ. eigenvalues --   -0.72218  -0.58085  -0.57374  -0.54650  -0.51814
 Alpha  occ. eigenvalues --   -0.51589  -0.49045  -0.46316  -0.46109  -0.44038
 Alpha  occ. eigenvalues --   -0.42700  -0.42125  -0.40732  -0.40132
 Alpha virt. eigenvalues --    0.15051   0.16348   0.16992   0.17042   0.18588
 Alpha virt. eigenvalues --    0.20675   0.20751   0.21991   0.22001   0.22229
 Alpha virt. eigenvalues --    0.22349   0.23231   0.23468   0.24261   0.24322

 Mulliken atomic charges:
              1
     1  C   -0.466673
     2  H    0.146105
     3  H    0.146328
     4  H    0.143999
     5  C   -0.216827
     6  H    0.126680
     7  H    0.125371
     8  C   -0.266511
     9  H    0.132480
    10  H    0.129049
    11  C   -0.266511
    12  H    0.129049
    13  H    0.132480
    14  C   -0.216827
    15  H    0.126680
    16  H    0.125371
    17  C   -0.466673
    18  H    0.146105
    19  H    0.143999
    20  H    0.146328
 Sum of Mulliken atomic charges =   0.00000

 Dipole moment (field-independent basis, Debye):
    X=              0.0000    Y=              0.0170    Z=              0.0000  Tot=              0.0170
 N-N= 1.628276284657D+02 E-N=-2.466501091481D+02  KE=-5.609714638334D+01
 Leave Link  601 at Mon Sep 14 19:14:21 2015, MaxMem=  402653184 cpu:       0.0
 (Enter /share/apps/g09/l9999.exe)
 1\1\GINC-COMPUTE-0-10\FOpt\RPM6\ZDO\C6H14\HETANJIN\14-Sep-2015\0\\#p P
 M6 opt\\using PM6 to do opt and freq calc.\\0,1\C,1.9542340716,-2.5673
 095518,0.5821613051\H,2.8447097677,-1.9468041472,0.7330846813\H,1.9909
 316531,-2.9479046067,-0.4447792254\H,2.0368413829,-3.4285366358,1.2543
 050243\C,0.6705974039,-1.7829904819,0.8456119643\H,-0.2067030056,-2.44
 82632374,0.7234747634\H,0.6472900581,-1.4452872874,1.9000183861\C,0.53
 98875051,-0.5733795555,-0.0907177599\H,0.5682273871,-0.9099098085,-1.1

 Normal termination of Gaussian 09 at Mon Sep 14 19:14:21 2015.
