 Gaussian 09, Revision A.01,
 Gaussian 09:  EM64L-G09RevA.01  8-May-2009

 -----------------------------------------
 #p B3LYP/6-31G(d) opt=tight int=ultrafine
 -----------------------------------------

 ---------------------------------------------
 using B3LYP/6-31G(d) to do opt and freq calc.
 ---------------------------------------------
 Symbolic Z-matrix:
 Charge =  0 Multiplicity = 1

 SCF Done:  E(RB3LYP) =  -237.082144842     A.U. after   12 cycles
 SCF Done:  E(RB3LYP) =  -237.083026243     A.U. after    9 cycles
 SCF Done:  E(RB3LYP) =  -237.083204512     A.U. after    9 cycles
 SCF Done:  E(RB3LYP) =  -237.083210655     A.U. after    7 cycles
 SCF Done:  E(RB3LYP) =  -237.083210900     A.U. after   12 cycles
 SCF Done:  E(RB3LYP) =  -237.083210910     A.U. after   12 cycles
 SCF Done:  E(RB3LYP) =  -237.083210910     A.U. after   12 cycles
 Optimization completed.
    -- Stationary point found.

                         Standard orientation:
 ---------------------------------------------------------------------
 Center     Atomic      Atomic             Coordinates (Angstroms)
 Number     Number       Type             X           Y           Z
 ---------------------------------------------------------------------
      1          6           0        1.637801    1.267058   -0.274508
      2          1           0        1.321478    2.174503    0.254484
      3          1           0        1.231002    1.314822   -1.291791
      4          1           0        2.730835    1.293577   -0.358773
      5          6           0        1.176134   -0.000001    0.462698
      6          1           0        1.670849   -0.000003    1.445782
      7          6           0       -0.342562   -0.000014    0.750920
      8          1           0       -0.578300    0.878058    1.370666
      9          1           0       -0.578292   -0.878108    1.370637
     10          6           0       -1.274201    0.000004   -0.470552
     11          1           0       -1.069934   -0.878061   -1.097299
     12          1           0       -1.069936    0.878090   -1.097272
     13          6           0       -2.755479   -0.000003   -0.075522
     14          1           0       -3.006190    0.884488    0.523260
     15          1           0       -3.405793    0.000012   -0.957880
     16          1           0       -3.006189   -0.884515    0.523230
     17          6           0        1.637821   -1.267046   -0.274521
     18          1           0        1.321507   -2.174501    0.254458
     19          1           0        1.231028   -1.314803   -1.291807
     20          1           0        2.730856   -1.293550   -0.358781
 ---------------------------------------------------------------------

 The electronic state is 1-A.
 Alpha  occ. eigenvalues --  -10.18326 -10.17494 -10.17255 -10.16986 -10.16801
 Alpha  occ. eigenvalues --  -10.16800  -0.80471  -0.75353  -0.67621  -0.66938
 Alpha  occ. eigenvalues --   -0.59729  -0.53858  -0.45770  -0.45354  -0.43227
 Alpha  occ. eigenvalues --   -0.40773  -0.40041  -0.37872  -0.36384  -0.35891
 Alpha  occ. eigenvalues --   -0.34832  -0.33123  -0.31289  -0.30924  -0.30169
 Alpha virt. eigenvalues --    0.08273   0.11432   0.12417   0.12618   0.15234
 Alpha virt. eigenvalues --    0.15935   0.17037   0.17598   0.17911   0.18874
 Alpha virt. eigenvalues --    0.19088   0.20036   0.21520   0.21660   0.23701

 Mulliken atomic charges:
              1
     1  C   -0.444128
     2  H    0.138008
     3  H    0.142240
     4  H    0.138755
     5  C   -0.064621
     6  H    0.119808
     7  C   -0.245372
     8  H    0.122949
     9  H    0.122949
    10  C   -0.253971
    11  H    0.134072
    12  H    0.134073
    13  C   -0.441342
    14  H    0.140675
    15  H    0.140354
    16  H    0.140675
    17  C   -0.444128
    18  H    0.138008
    19  H    0.142239
    20  H    0.138755
 Sum of Mulliken atomic charges =   0.00000

 Dipole moment (field-independent basis, Debye):
    X=              0.0498    Y=              0.0000    Z=              0.0294  Tot=              0.0578
 Quadrupole moment (field-independent basis, Debye-Ang):
   XX=            -41.9229   YY=            -41.5102   ZZ=            -41.3990
   XY=              0.0000   XZ=              0.3149   YZ=              0.0000

 Normal termination of Gaussian 09 at Fri Sep 18 13:35:02 2015.
