 Gaussian 09, Revision D.01,
 Gaussian 09:  ES64L-G09RevD.01 24-Apr-2013

 ----------------------------------------------
 #p B3LYP/6-31G(d) opt=tight int=ultrafine freq
 ----------------------------------------------

 ---------------------------------------------
 using B3LYP/6-31G(d) to do opt and freq calc.
 ---------------------------------------------
 Symbolic Z-matrix:
 Charge =  0 Multiplicity = 2

 SCF Done:  E(UB3LYP) =  -236.402486665     A.U. after   14 cycles
 SCF Done:  E(UB3LYP) =  -236.410416685     A.U. after   13 cycles
 SCF Done:  E(UB3LYP) =  -236.412443827     A.U. after   14 cycles
 SCF Done:  E(UB3LYP) =  -236.412587082     A.U. after   11 cycles
 SCF Done:  E(UB3LYP) =  -236.412612326     A.U. after   10 cycles
 SCF Done:  E(UB3LYP) =  -236.412617556     A.U. after    8 cycles
 SCF Done:  E(UB3LYP) =  -236.412617748     A.U. after    7 cycles
 SCF Done:  E(UB3LYP) =  -236.412617787     A.U. after    6 cycles
 SCF Done:  E(UB3LYP) =  -236.412617791     A.U. after    5 cycles
 Optimization completed.
    -- Stationary point found.
 Normal termination of Gaussian 09 at Sat Nov  7 02:02:24 2015.

 --------------------------------------------------------------------
 #P Geom=AllCheck Guess=TCheck SCRF=Check GenChk UB3LYP/6-31G(d) Freq
 --------------------------------------------------------------------

 Structure from the checkpoint file:  "/state/partition1/Gau-17549.chk"
 ---------------------------------------------
 using B3LYP/6-31G(d) to do opt and freq calc.
 ---------------------------------------------
 Charge =  0 Multiplicity = 2

                         Standard orientation:
 ---------------------------------------------------------------------
 Center     Atomic      Atomic             Coordinates (Angstroms)
 Number     Number       Type             X           Y           Z
 ---------------------------------------------------------------------
      1          6           0        1.464545    2.797580    0.000000
      2          1           0        0.961375    3.207117    0.884657
      3          1           0        0.961375    3.207117   -0.884657
      4          1           0        2.494714    3.171852    0.000000
      5          6           0        1.425107    1.265807    0.000000
      6          1           0        1.966289    0.885568   -0.878049
      7          1           0        1.966289    0.885568    0.878049
      8          6           0        0.000000    0.697534    0.000000
      9          1           0       -0.542076    1.078218   -0.878665
     10          1           0       -0.542076    1.078218    0.878665
     11          6           0       -0.046863   -0.835786    0.000000
     12          1           0        0.487828   -1.222196    0.878758
     13          1           0        0.487828   -1.222196   -0.878758
     14          6           0       -1.492660   -1.398210    0.000000
     15          1           0       -2.015771   -0.998957   -0.881018
     16          1           0       -2.015771   -0.998957    0.881018
     17          6           0       -1.556724   -2.888793    0.000000
     18          1           0       -1.485214   -3.450071    0.927159
     19          1           0       -1.485214   -3.450071   -0.927159
 ---------------------------------------------------------------------

 SCF Done:  E(UB3LYP) =  -236.412617791     A.U. after    1 cycles

 The electronic state is 2-A'.
 Alpha  occ. eigenvalues --  -10.18351 -10.18151 -10.17881 -10.17762 -10.17603
 Alpha  occ. eigenvalues --  -10.17115  -0.80167  -0.76313  -0.70222  -0.62968
 Alpha  occ. eigenvalues --   -0.57656  -0.57193  -0.47694  -0.44720  -0.42823
 Alpha  occ. eigenvalues --   -0.40479  -0.40427  -0.38768  -0.35886  -0.35463
 Alpha  occ. eigenvalues --   -0.32839  -0.32517  -0.32014  -0.31944  -0.19506
 Alpha virt. eigenvalues --    0.09254   0.11126   0.12214   0.13390   0.13617
 Alpha virt. eigenvalues --    0.15692   0.16516   0.17534   0.18877   0.19037
 Alpha virt. eigenvalues --    0.19781   0.20355   0.22669   0.23199   0.24397

  Beta  occ. eigenvalues --  -10.18239 -10.17758 -10.17721 -10.17583 -10.17112
  Beta  occ. eigenvalues --  -10.16971  -0.79852  -0.75650  -0.69261  -0.61783
  Beta  occ. eigenvalues --   -0.57301  -0.56309  -0.47543  -0.44422  -0.42618
  Beta  occ. eigenvalues --   -0.40101  -0.39947  -0.38282  -0.35676  -0.35015
  Beta  occ. eigenvalues --   -0.32719  -0.32395  -0.31900  -0.31460
  Beta virt. eigenvalues --   -0.03663   0.09326   0.11370   0.12272   0.13421
  Beta virt. eigenvalues --    0.14625   0.15836   0.16810   0.17683   0.18969
  Beta virt. eigenvalues --    0.19119   0.19789   0.20419   0.23028   0.23424

 Mulliken charges and spin densities:
               1          2
     1  C   -0.441418   0.001360
     2  H    0.141245  -0.000056
     3  H    0.141245  -0.000056
     4  H    0.141657   0.000380
     5  C   -0.246771   0.001037
     6  H    0.130560  -0.000020
     7  H    0.130560  -0.000020
     8  C   -0.245733   0.011108
     9  H    0.126870  -0.000381
    10  H    0.126870  -0.000381
    11  C   -0.246164   0.054740
    12  H    0.130329  -0.000806
    13  H    0.130329  -0.000806
    14  C   -0.265532  -0.078503
    15  H    0.136923   0.013356
    16  H    0.136923   0.013356
    17  C   -0.309070   1.087096
    18  H    0.140589  -0.050702
    19  H    0.140589  -0.050702
 Sum of Mulliken charges =   0.00000   1.00000

 Dipole moment (field-independent basis, Debye):
    X=              0.2293    Y=              0.2114    Z=              0.0000  Tot=              0.3118
 Quadrupole moment (field-independent basis, Debye-Ang):
   XX=            -42.1852   YY=            -41.9391   ZZ=            -39.4433
   XY=             -0.9020   XZ=              0.0000   YZ=              0.0000

  Exact polarizability:  59.867   9.220  75.178   0.000   0.000  57.903
 Approx polarizability:  77.346   2.079  86.256   0.000   0.000  84.206

                      1                      2                      3
                     A"                     A"                     A"
 Frequencies --     75.1236                84.8006               112.0033
 Red. masses --      2.2023                 1.1299                 1.6226
 Frc consts  --      0.0073                 0.0048                 0.0120
 IR Inten    --      0.2168                 0.3357                 0.1088

                      4                      5                      6
                     A'                     A"                     A"
 Frequencies --    133.1160               154.2458               249.4794
 Red. masses --      2.8898                 1.9860                 1.1151
 Frc consts  --      0.0302                 0.0278                 0.0409
 IR Inten    --      0.0314                 0.0005                 0.0015

                      7                      8                      9
                     A'                     A'                     A'
 Frequencies --    289.0351               366.7148               430.2377
 Red. masses --      2.2793                 3.5140                 1.8192
 Frc consts  --      0.1122                 0.2784                 0.1984
 IR Inten    --      2.1757                 0.0015                15.7196

                     10                     11                     12
                     A'                     A"                     A"
 Frequencies --    535.6414               737.3789               750.5621
 Red. masses --      2.1733                 1.0604                 1.0896
 Frc consts  --      0.3674                 0.3397                 0.3616
 IR Inten    --     37.6942                 4.1111                 0.0892

                     13                     14                     15
                     A"                     A'                     A"
 Frequencies --    807.2136               903.5733               906.5560
 Red. masses --      1.1392                 2.0549                 1.1719
 Frc consts  --      0.4373                 0.9885                 0.5674
 IR Inten    --      0.6896                 1.2580                 0.2703

                     16                     17                     18
                     A'                     A"                     A'
 Frequencies --    981.5331              1016.3341              1029.0418
 Red. masses --      3.6962                 1.1304                 3.5253
 Frc consts  --      2.0980                 0.6879                 2.1995
 IR Inten    --      1.2602                 0.0274                 0.1104

                     19                     20                     21
                     A'                     A'                     A'
 Frequencies --   1069.4033              1079.2260              1132.5341
 Red. masses --      2.3566                 2.9203                 2.0773
 Frc consts  --      1.5879                 2.0040                 1.5698
 IR Inten    --      0.1608                 0.6455                 2.1913

                     22                     23                     24
                     A"                     A"                     A'
 Frequencies --   1211.5152              1260.5596              1266.6222
 Red. masses --      1.8284                 1.3963                 1.2892
 Frc consts  --      1.5812                 1.3072                 1.2186
 IR Inten    --      0.5944                 0.3668                 3.2561

                     25                     26                     27
                     A"                     A'                     A"
 Frequencies --   1320.2948              1338.3653              1342.1996
 Red. masses --      1.1993                 1.3330                 1.0491
 Frc consts  --      1.2317                 1.4067                 1.1135
 IR Inten    --      0.3019                 1.8813                 0.1227

                     28                     29                     30
                     A"                     A'                     A'
 Frequencies --   1348.8472              1384.6087              1418.1276
 Red. masses --      1.0991                 1.3928                 1.5799
 Frc consts  --      1.1782                 1.5732                 1.8721
 IR Inten    --      1.2089                 0.6321                 1.6301

                     31                     32                     33
                     A'                     A'                     A'
 Frequencies --   1440.7921              1490.1997              1513.0597
 Red. masses --      1.2427                 1.1438                 1.1115
 Frc consts  --      1.5199                 1.4965                 1.4992
 IR Inten    --      1.0475                 1.3885                 0.3560

                     34                     35                     36
                     A'                     A'                     A"
 Frequencies --   1514.8091              1521.2017              1529.8369
 Red. masses --      1.0742                 1.0785                 1.0410
 Frc consts  --      1.4523                 1.4704                 1.4355
 IR Inten    --      0.0639                 0.5403                 5.8103

                     37                     38                     39
                     A'                     A'                     A'
 Frequencies --   1532.6823              1542.4116              3011.2813
 Red. masses --      1.0826                 1.0896                 1.0583
 Frc consts  --      1.4984                 1.5272                 5.6540
 IR Inten    --      0.2688                 3.4893                 0.1926

                     40                     41                     42
                     A'                     A'                     A'
 Frequencies --   3015.2967              3024.3699              3033.6475
 Red. masses --      1.0575                 1.0596                 1.0596
 Frc consts  --      5.6648                 5.7105                 5.7453
 IR Inten    --     24.4260                 4.2449                92.5874

                     43                     44                     45
                     A"                     A'                     A"
 Frequencies --   3036.0353              3040.9349              3046.6002
 Red. masses --      1.1007                 1.0359                 1.1027
 Frc consts  --      5.9778                 5.6439                 6.0304
 IR Inten    --      1.1772                43.8091                 5.9759

                     46                     47                     48
                     A"                     A"                     A"
 Frequencies --   3059.3874              3079.5274              3105.7591
 Red. masses --      1.1052                 1.1064                 1.1029
 Frc consts  --      6.0948                 6.1818                 6.2677
 IR Inten    --      2.2076                90.6444                71.3853

                     49                     50                     51
                     A'                     A'                     A"
 Frequencies --   3110.3015              3160.0368              3256.2043
 Red. masses --      1.1019                 1.0509                 1.1182
 Frc consts  --      6.2804                 6.1831                 6.9855
 IR Inten    --     44.2273                19.7947                20.0708

 - Thermochemistry -
 -------------------
 Temperature   298.150 Kelvin.  Pressure   1.00000 Atm.
 Atom     1 has atomic number  6 and mass  12.00000

 Molecular mass:    85.10173 amu.
 Principal axes and moments of inertia in atomic units:
                           1         2         3
     Eigenvalues --   120.206251555.972881608.03303
           X            0.52650   0.85017   0.00000
           Y            0.85017  -0.52650   0.00000
           Z            0.00000   0.00000   1.00000
 This molecule is an asymmetric top.
 Rotational symmetry number  1.
 Rotational temperatures (Kelvin)      0.72054     0.05567     0.05386
 Rotational constants (GHZ):          15.01371     1.15988     1.12233
 Zero-point vibrational energy     459361.6 (Joules/Mol)
                                  109.79007 (Kcal/Mol)
 Warning -- explicit consideration of  10 degrees of freedom as
           vibrations may cause significant error
 Vibrational temperatures:    108.09   122.01   161.15   191.52   221.92
          (Kelvin)            358.94   415.86   527.62   619.02   770.67
                             1060.92  1079.89  1161.40  1300.04  1304.33
                             1412.21  1462.28  1480.56  1538.63  1552.76
                             1629.46  1743.10  1813.66  1822.38  1899.61
                             1925.61  1931.12  1940.69  1992.14  2040.37
                             2072.98  2144.06  2176.95  2179.47  2188.67
                             2201.09  2205.19  2219.18  4332.56  4338.33
                             4351.39  4364.74  4368.17  4375.22  4383.37
                             4401.77  4430.75  4468.49  4475.02  4546.58
                             4684.95

 Zero-point correction=                           0.174962 (Hartree/Particle)
 Thermal correction to Energy=                    0.183799
 Thermal correction to Enthalpy=                  0.184744
 Thermal correction to Gibbs Free Energy=         0.141089
 Sum of electronic and zero-point Energies=           -236.237656
 Sum of electronic and thermal Energies=              -236.228818
 Sum of electronic and thermal Enthalpies=            -236.227874
 Sum of electronic and thermal Free Energies=         -236.271529

                     E (Thermal)             CV                S
                      KCal/Mol        Cal/Mol-Kelvin    Cal/Mol-Kelvin
 Total                  115.336             30.150             91.878
 Electronic               0.000              0.000              1.377
 Translational            0.889              2.981             39.237
 Rotational               0.889              2.981             27.200
 Vibrational            113.558             24.188             24.064
 Vibration     1          0.599              1.966              4.014
 Vibration     2          0.601              1.960              3.777
 Vibration     3          0.607              1.940              3.234
 Vibration     4          0.613              1.920              2.901
 Vibration     5          0.620              1.898              2.619
 Vibration     6          0.662              1.764              1.734
 Vibration     7          0.686              1.694              1.480
 Vibration     8          0.740              1.541              1.094
 Vibration     9          0.791              1.404              0.858
 Vibration    10          0.891              1.171              0.575

 Optimization completed.
    -- Stationary point found.
 Normal termination of Gaussian 09 at Sat Nov  7 02:06:11 2015.
