 Gaussian 09, Revision D.01,
 Gaussian 09:  ES64L-G09RevD.01 24-Apr-2013

 ----------------------------------------------
 #p B3LYP/6-31G(d) opt=tight int=ultrafine freq
 ----------------------------------------------

 ---------------------------------------------
 using B3LYP/6-31G(d) to do opt and freq calc.
 ---------------------------------------------
 Symbolic Z-matrix:
 Charge =  0 Multiplicity = 2

 SCF Done:  E(UB3LYP) =  -236.401022916     A.U. after   14 cycles
 SCF Done:  E(UB3LYP) =  -236.409422773     A.U. after   14 cycles
 SCF Done:  E(UB3LYP) =  -236.411550025     A.U. after   14 cycles
 SCF Done:  E(UB3LYP) =  -236.411766802     A.U. after   12 cycles
 SCF Done:  E(UB3LYP) =  -236.411820809     A.U. after   11 cycles
 SCF Done:  E(UB3LYP) =  -236.411842479     A.U. after   10 cycles
 SCF Done:  E(UB3LYP) =  -236.411848595     A.U. after   10 cycles
 SCF Done:  E(UB3LYP) =  -236.411852245     A.U. after   10 cycles
 SCF Done:  E(UB3LYP) =  -236.411854588     A.U. after    9 cycles
 SCF Done:  E(UB3LYP) =  -236.411854945     A.U. after    8 cycles
 SCF Done:  E(UB3LYP) =  -236.411854989     A.U. after    7 cycles
 SCF Done:  E(UB3LYP) =  -236.411854994     A.U. after    6 cycles
 SCF Done:  E(UB3LYP) =  -236.411854994     A.U. after    6 cycles
 Optimization completed.
    -- Stationary point found.
 Normal termination of Gaussian 09 at Sat Nov  7 02:15:02 2015.

 --------------------------------------------------------------------
 #P Geom=AllCheck Guess=TCheck SCRF=Check GenChk UB3LYP/6-31G(d) Freq
 --------------------------------------------------------------------

 Structure from the checkpoint file:  "/state/partition1/Gau-19093.chk"
 ---------------------------------------------
 using B3LYP/6-31G(d) to do opt and freq calc.
 ---------------------------------------------
 Charge =  0 Multiplicity = 2

                         Standard orientation:
 ---------------------------------------------------------------------
 Center     Atomic      Atomic             Coordinates (Angstroms)
 Number     Number       Type             X           Y           Z
 ---------------------------------------------------------------------
      1          6           0        2.578532   -0.097399    0.293411
      2          1           0        2.583515   -0.160919    1.388801
      3          1           0        2.712331    0.956195    0.023441
      4          1           0        3.447470   -0.654143   -0.075943
      5          6           0        1.275301   -0.657174   -0.284740
      6          1           0        1.310933   -0.614889   -1.383317
      7          1           0        1.186342   -1.720480   -0.022541
      8          6           0        0.005505    0.082242    0.199155
      9          1           0        0.000169    0.058219    1.300322
     10          6           0       -1.266311   -0.675663   -0.277601
     11          1           0       -1.171645   -1.729681    0.019884
     12          1           0       -1.291521   -0.665368   -1.376416
     13          6           0       -2.577490   -0.107693    0.272879
     14          1           0       -2.728359    0.929485   -0.046643
     15          1           0       -3.436917   -0.693670   -0.072629
     16          1           0       -2.585481   -0.122035    1.370156
     17          6           0       -0.000536    1.512257   -0.244275
     18          1           0        0.206196    1.758743   -1.283594
     19          1           0       -0.323035    2.319126    0.405503
 ---------------------------------------------------------------------

 SCF Done:  E(UB3LYP) =  -236.411854994     A.U. after    1 cycles

 The electronic state is 2-A.
 Alpha  occ. eigenvalues --  -10.18596 -10.18326 -10.17893 -10.17729 -10.16946
 Alpha  occ. eigenvalues --  -10.16828  -0.81041  -0.74489  -0.70081  -0.64144
 Alpha  occ. eigenvalues --   -0.59403  -0.55083  -0.46841  -0.44044  -0.42697
 Alpha  occ. eigenvalues --   -0.41883  -0.39259  -0.38845  -0.36808  -0.34848
 Alpha  occ. eigenvalues --   -0.33219  -0.32528  -0.32026  -0.31352  -0.19628
 Alpha virt. eigenvalues --    0.09264   0.12218   0.12413   0.13651   0.14509
 Alpha virt. eigenvalues --    0.15842   0.17196   0.17483   0.17932   0.18938
 Alpha virt. eigenvalues --    0.19833   0.20475   0.21363   0.22872   0.25411

  Beta  occ. eigenvalues --  -10.18683 -10.17758 -10.17667 -10.16953 -10.16939
  Beta  occ. eigenvalues --  -10.16817  -0.80459  -0.74370  -0.68880  -0.62529
  Beta  occ. eigenvalues --   -0.59257  -0.54417  -0.46452  -0.43515  -0.42633
  Beta  occ. eigenvalues --   -0.41388  -0.39172  -0.38552  -0.36522  -0.34767
  Beta  occ. eigenvalues --   -0.33131  -0.32118  -0.31488  -0.31064
  Beta virt. eigenvalues --   -0.04046   0.09418   0.12367   0.12794   0.14048
  Beta virt. eigenvalues --    0.14952   0.16414   0.17349   0.17496   0.18004
  Beta virt. eigenvalues --    0.19177   0.19894   0.20761   0.21640   0.23020

 Mulliken charges and spin densities:
               1          2
     1  C   -0.442458   0.006390
     2  H    0.139214   0.000281
     3  H    0.149056   0.001046
     4  H    0.139519  -0.000379
     5  C   -0.251676   0.023042
     6  H    0.127784  -0.001401
     7  H    0.127995   0.001575
     8  C   -0.069233  -0.075000
     9  H    0.119332   0.005654
    10  C   -0.245318   0.047339
    11  H    0.128336   0.008286
    12  H    0.129037  -0.001125
    13  C   -0.444446   0.003468
    14  H    0.147294   0.002519
    15  H    0.141033  -0.000623
    16  H    0.138736   0.000834
    17  C   -0.313780   1.080181
    18  H    0.136375  -0.050489
    19  H    0.143200  -0.051599
 Sum of Mulliken charges =   0.00000   1.00000

 Dipole moment (field-independent basis, Debye):
    X=             -0.1004    Y=             -0.1378    Z=             -0.0004  Tot=              0.1705
 Quadrupole moment (field-independent basis, Debye-Ang):
   XX=            -41.9495   YY=            -40.5878   ZZ=            -40.0196
   XY=             -0.2711   XZ=             -0.2913   YZ=             -0.1532

  Exact polarizability:  70.226  -0.257  62.536  -1.141  -0.234  57.493
 Approx polarizability:  79.879  -0.159  85.865  -1.708  -1.097  83.709

                      1                      2                      3
                      A                      A                      A
 Frequencies --     89.4977                95.7841               117.9086
 Red. masses --      1.0510                 2.4215                 1.4984
 Frc consts  --      0.0050                 0.0131                 0.0123
 IR Inten    --      1.7261                 0.0010                 0.1378

                      4                      5                      6
                      A                      A                      A
 Frequencies --    193.2343               222.4003               246.7326
 Red. masses --      2.5765                 1.0910                 1.2151
 Frc consts  --      0.0567                 0.0318                 0.0436
 IR Inten    --      0.0957                 0.0262                 0.0263

                      7                      8                      9
                      A                      A                      A
 Frequencies --    284.9867               382.1143               410.6982
 Red. masses --      1.9010                 2.5511                 1.7699
 Frc consts  --      0.0910                 0.2195                 0.1759
 IR Inten    --      1.7697                 1.9825                15.6016

                     10                     11                     12
                      A                      A                      A
 Frequencies --    436.9419               537.5903               781.9291
 Red. masses --      1.9857                 2.1546                 1.2018
 Frc consts  --      0.2234                 0.3669                 0.4329
 IR Inten    --      0.7614                28.3131                 0.2892

                     13                     14                     15
                      A                      A                      A
 Frequencies --    787.6565               824.8198               914.9708
 Red. masses --      1.5011                 1.4283                 2.2416
 Frc consts  --      0.5487                 0.5725                 1.1057
 IR Inten    --      3.0889                 1.7967                 2.6001

                     16                     17                     18
                      A                      A                      A
 Frequencies --    960.8366               994.3539              1031.4125
 Red. masses --      1.2714                 1.8151                 1.7063
 Frc consts  --      0.6916                 1.0574                 1.0694
 IR Inten    --      0.8850                 1.1300                 0.0006

                     19                     20                     21
                      A                      A                      A
 Frequencies --   1050.3533              1068.5352              1100.9716
 Red. masses --      1.6633                 2.6691                 1.8981
 Frc consts  --      1.0812                 1.7955                 1.3556
 IR Inten    --      2.7295                 0.5559                 2.2211

                     22                     23                     24
                      A                      A                      A
 Frequencies --   1173.1972              1205.9086              1287.6783
 Red. masses --      2.1564                 1.9636                 1.2947
 Frc consts  --      1.7487                 1.6824                 1.2648
 IR Inten    --      1.2532                 1.1149                 1.0037

                     25                     26                     27
                      A                      A                      A
 Frequencies --   1312.8083              1319.8103              1375.7468
 Red. masses --      1.2351                 1.1446                 1.3390
 Frc consts  --      1.2541                 1.1747                 1.4932
 IR Inten    --      1.2828                 3.4372                 3.5611

                     28                     29                     30
                      A                      A                      A
 Frequencies --   1387.3060              1397.6376              1436.3725
 Red. masses --      1.3787                 1.3638                 1.2361
 Frc consts  --      1.5634                 1.5696                 1.5025
 IR Inten    --      1.0778                 2.1926                 2.4401

                     31                     32                     33
                      A                      A                      A
 Frequencies --   1440.6186              1486.8046              1511.4195
 Red. masses --      1.2587                 1.1829                 1.0746
 Frc consts  --      1.5391                 1.5407                 1.4464
 IR Inten    --      1.7062                 0.1684                 0.1439

                     34                     35                     36
                      A                      A                      A
 Frequencies --   1522.6146              1526.7496              1527.9655
 Red. masses --      1.0708                 1.0416                 1.0415
 Frc consts  --      1.4626                 1.4305                 1.4326
 IR Inten    --      0.1713                 6.2979                 5.7301

                     37                     38                     39
                      A                      A                      A
 Frequencies --   1535.7686              1538.2919              3002.5674
 Red. masses --      1.0591                 1.0718                 1.0820
 Frc consts  --      1.4717                 1.4943                 5.7471
 IR Inten    --      1.7929                 4.1133                10.3185

                     40                     41                     42
                      A                      A                      A
 Frequencies --   3019.4951              3027.0125              3042.2255
 Red. masses --      1.0595                 1.0613                 1.0380
 Frc consts  --      5.6915                 5.7294                 5.6604
 IR Inten    --      2.2538                69.9206                44.7709

                     43                     44                     45
                      A                      A                      A
 Frequencies --   3043.2081              3053.5043              3063.4840
 Red. masses --      1.0369                 1.1004                 1.1017
 Frc consts  --      5.6576                 6.0452                 6.0919
 IR Inten    --     15.2183                 2.5358                51.0483

                     46                     47                     48
                      A                      A                      A
 Frequencies --   3105.9374              3106.6930              3115.5059
 Red. masses --      1.1017                 1.1016                 1.1025
 Frc consts  --      6.2617                 6.2643                 6.3052
 IR Inten    --     24.2694                70.6595                13.3736

                     49                     50                     51
                      A                      A                      A
 Frequencies --   3116.2206              3153.3180              3254.7432
 Red. masses --      1.1022                 1.0522                 1.1168
 Frc consts  --      6.3062                 6.1642                 6.9703
 IR Inten    --     64.9554                15.9355                16.7293

 - Thermochemistry -
 -------------------
 Temperature   298.150 Kelvin.  Pressure   1.00000 Atm.
 Atom     1 has atomic number  6 and mass  12.00000

 Molecular mass:    85.10173 amu.
 Principal axes and moments of inertia in atomic units:
                           1         2         3
     Eigenvalues --   259.92659 975.353231119.34153
           X            1.00000  -0.00129  -0.00107
           Y            0.00129   0.99998   0.00534
           Z            0.00106  -0.00534   0.99999
 This molecule is an asymmetric top.
 Rotational symmetry number  1.
 Rotational temperatures (Kelvin)      0.33322     0.08880     0.07738
 Rotational constants (GHZ):           6.94327     1.85035     1.61232
 Zero-point vibrational energy     458315.3 (Joules/Mol)
                                  109.53999 (Kcal/Mol)
 Warning -- explicit consideration of  11 degrees of freedom as
           vibrations may cause significant error
 Vibrational temperatures:    128.77   137.81   169.64   278.02   319.98
          (Kelvin)            354.99   410.03   549.78   590.90   628.66
                              773.47  1125.02  1133.26  1186.73  1316.44
                             1382.43  1430.65  1483.97  1511.22  1537.38
                             1584.05  1687.97  1735.03  1852.68  1888.84
                             1898.91  1979.39  1996.02  2010.89  2066.62
                             2072.73  2139.18  2174.59  2190.70  2196.65
                             2198.40  2209.63  2213.26  4320.02  4344.37
                             4355.19  4377.08  4378.49  4393.31  4407.66
                             4468.75  4469.83  4482.51  4483.54  4536.92
                             4682.84

 Zero-point correction=                           0.174563 (Hartree/Particle)
 Thermal correction to Energy=                    0.183342
 Thermal correction to Enthalpy=                  0.184286
 Thermal correction to Gibbs Free Energy=         0.141314
 Sum of electronic and zero-point Energies=           -236.237292
 Sum of electronic and thermal Energies=              -236.228513
 Sum of electronic and thermal Enthalpies=            -236.227569
 Sum of electronic and thermal Free Energies=         -236.270541

                     E (Thermal)             CV                S
                      KCal/Mol        Cal/Mol-Kelvin    Cal/Mol-Kelvin
 Total                  115.049             30.813             90.442
 Electronic               0.000              0.000              1.377
 Translational            0.889              2.981             39.237
 Rotational               0.889              2.981             27.142
 Vibrational            113.271             24.852             22.685
 Vibration     1          0.602              1.957              3.671
 Vibration     2          0.603              1.952              3.538
 Vibration     3          0.608              1.934              3.134
 Vibration     4          0.635              1.849              2.197
 Vibration     5          0.648              1.807              1.939
 Vibration     6          0.661              1.768              1.754
 Vibration     7          0.683              1.702              1.504
 Vibration     8          0.752              1.508              1.031
 Vibration     9          0.775              1.447              0.924
 Vibration    10          0.797              1.390              0.836
 Vibration    11          0.893              1.167              0.570

 Optimization completed.
    -- Stationary point found.
 Normal termination of Gaussian 09 at Sat Nov  7 02:22:13 2015.
