 Gaussian 09, Revision A.01,
 Gaussian 09:  EM64L-G09RevA.01  8-May-2009

 -----------------------------------------
 #p B3LYP/6-31G(d) opt=tight int=ultrafine
 -----------------------------------------

 ---------------------------------------------
 using B3LYP/6-31G(d) to do opt and freq calc.
 ---------------------------------------------
 Symbolic Z-matrix:
 Charge =  0 Multiplicity = 1

 SCF Done:  E(RB3LYP) =  -237.081364851     A.U. after   11 cycles
 SCF Done:  E(RB3LYP) =  -237.082483164     A.U. after    9 cycles
 SCF Done:  E(RB3LYP) =  -237.082687668     A.U. after    9 cycles
 SCF Done:  E(RB3LYP) =  -237.082748413     A.U. after    9 cycles
 SCF Done:  E(RB3LYP) =  -237.082757943     A.U. after   12 cycles
 SCF Done:  E(RB3LYP) =  -237.082759338     A.U. after    7 cycles
 SCF Done:  E(RB3LYP) =  -237.082759361     A.U. after    6 cycles
 SCF Done:  E(RB3LYP) =  -237.082759362     A.U. after    5 cycles
 SCF Done:  E(RB3LYP) =  -237.082759362     A.U. after    4 cycles
 Optimization completed.
    -- Stationary point found.

                         Standard orientation:
 ---------------------------------------------------------------------
 Center     Atomic      Atomic             Coordinates (Angstroms)
 Number     Number       Type             X           Y           Z
 ---------------------------------------------------------------------
      1          6           0        2.526997    0.765542   -0.343342
      2          1           0        2.324885    1.680766    0.227565
      3          1           0        2.101568    0.899272   -1.344223
      4          1           0        3.613702    0.678879   -0.457554
      5          6           0        1.947600   -0.464712    0.365567
      6          1           0        2.166211   -1.364515   -0.227549
      7          1           0        2.467378   -0.599517    1.323848
      8          6           0        0.434667   -0.392117    0.633312
      9          1           0        0.223195    0.504071    1.233445
     10          1           0        0.145476   -1.251231    1.256316
     11          6           0       -0.434667   -0.392118   -0.633312
     12          1           0       -0.145476   -1.251231   -1.256315
     13          1           0       -0.223195    0.504071   -1.233445
     14          6           0       -1.947600   -0.464712   -0.365567
     15          1           0       -2.166211   -1.364515    0.227549
     16          1           0       -2.467378   -0.599517   -1.323848
     17          6           0       -2.526997    0.765542    0.343342
     18          1           0       -2.324885    1.680766   -0.227565
     19          1           0       -3.613702    0.678879    0.457554
     20          1           0       -2.101568    0.899272    1.344223
 ---------------------------------------------------------------------

 The electronic state is 1-A.
 Alpha  occ. eigenvalues --  -10.17617 -10.17617 -10.17343 -10.17322 -10.16937
 Alpha  occ. eigenvalues --  -10.16937  -0.79872  -0.75880  -0.69809  -0.64472
 Alpha  occ. eigenvalues --   -0.58673  -0.55299  -0.46195  -0.44461  -0.43238
 Alpha  occ. eigenvalues --   -0.42392  -0.39268  -0.37583  -0.37413  -0.34923
 Alpha  occ. eigenvalues --   -0.33516  -0.33365  -0.31339  -0.31105  -0.30323
 Alpha virt. eigenvalues --    0.09021   0.10876   0.12284   0.12432   0.15653
 Alpha virt. eigenvalues --    0.16001   0.16356   0.17681   0.17811   0.18409
 Alpha virt. eigenvalues --    0.18555   0.19711   0.19901   0.23900   0.24707

 Mulliken atomic charges:
              1
     1  C   -0.442728
     2  H    0.139960
     3  H    0.146101
     4  H    0.141082
     5  C   -0.248747
     6  H    0.128690
     7  H    0.129347
     8  C   -0.248984
     9  H    0.130089
    10  H    0.125189
    11  C   -0.248984
    12  H    0.125189
    13  H    0.130089
    14  C   -0.248747
    15  H    0.128690
    16  H    0.129347
    17  C   -0.442728
    18  H    0.139960
    19  H    0.141082
    20  H    0.146101
 Sum of Mulliken atomic charges =   0.00000

 Dipole moment (field-independent basis, Debye):
    X=              0.0000    Y=             -0.0535    Z=              0.0000  Tot=              0.0535
 Quadrupole moment (field-independent basis, Debye-Ang):
   XX=            -41.7488   YY=            -41.4995   ZZ=            -41.3121
   XY=              0.0000   XZ=              0.2206   YZ=              0.0000

 Normal termination of Gaussian 09 at Fri Sep 18 13:29:46 2015.
