 Gaussian 09, Revision A.01,
 Gaussian 09:  EM64L-G09RevA.01  8-May-2009

 ----------
 #p PM6 opt
 ----------

 ----------------------------------
 using PM6 to do opt and freq calc.
 ----------------------------------
 Symbolic Z-matrix:
 Charge =  0 Multiplicity = 1

 SCF Done:  E(RPM6) = -0.569616408600E-01 A.U. after   13 cycles
 SCF Done:  E(RPM6) = -0.601458531272E-01 A.U. after   12 cycles
 SCF Done:  E(RPM6) = -0.603688061956E-01 A.U. after   11 cycles
 SCF Done:  E(RPM6) = -0.604288314892E-01 A.U. after   11 cycles
 SCF Done:  E(RPM6) = -0.604310003791E-01 A.U. after   10 cycles
 SCF Done:  E(RPM6) = -0.604313461599E-01 A.U. after    9 cycles
 Optimization completed.
    -- Stationary point found.

                         Standard orientation:
 ---------------------------------------------------------------------
 Center     Atomic      Atomic             Coordinates (Angstroms)
 Number     Number       Type             X           Y           Z
 ---------------------------------------------------------------------
      1          6           0        0.495821   -0.885984    1.258952
      2          1           0       -0.325070   -1.609868    1.280578
      3          1           0        0.429859   -0.287148    2.172276
      4          1           0        1.431543   -1.451632    1.301699
      5          6           0        0.431716   -0.001572   -0.000002
      6          6           0       -0.863051    0.856182    0.000738
      7          1           0       -0.851080    1.525632   -0.881124
      8          1           0       -0.850978    1.524244    0.883655
      9          6           0       -2.157408    0.047876    0.000066
     10          1           0       -2.230305   -0.600070    0.880972
     11          1           0       -3.031513    0.708564    0.005000
     12          1           0       -2.234263   -0.592116   -0.886276
     13          6           0        1.642230    0.957697   -0.001334
     14          1           0        1.643351    1.602849   -0.884846
     15          1           0        1.644443    1.603949    0.881371
     16          1           0        2.586533    0.404421   -0.001575
     17          6           0        0.493807   -0.886949   -1.258336
     18          1           0        1.430292   -1.451187   -1.303105
     19          1           0       -0.325961   -1.612156   -1.277149
     20          1           0        0.424463   -0.288985   -2.171979
 ---------------------------------------------------------------------

 The electronic state is 1-A.
 Alpha  occ. eigenvalues --   -1.07272  -0.95309  -0.88392  -0.88256  -0.79240
 Alpha  occ. eigenvalues --   -0.66627  -0.57057  -0.56579  -0.54150  -0.52535
 Alpha  occ. eigenvalues --   -0.49593  -0.47749  -0.47302  -0.46054  -0.45902
 Alpha  occ. eigenvalues --   -0.43563  -0.41346  -0.40924  -0.40164
 Alpha virt. eigenvalues --    0.15473   0.16172   0.16353   0.18154   0.18414
 Alpha virt. eigenvalues --    0.21404   0.22199   0.22400   0.22428   0.22681
 Alpha virt. eigenvalues --    0.22739   0.22827   0.22881   0.23364   0.24762

 Mulliken atomic charges:
              1
     1  C   -0.528078
     2  H    0.153663
     3  H    0.151592
     4  H    0.151154
     5  C    0.271653
     6  C   -0.295115
     7  H    0.132255
     8  H    0.132254
     9  C   -0.446119
    10  H    0.144665
    11  H    0.139205
    12  H    0.144624
    13  C   -0.538639
    14  H    0.152144
    15  H    0.152139
    16  H    0.154238
    17  C   -0.528056
    18  H    0.151138
    19  H    0.153686
    20  H    0.151594
 Sum of Mulliken atomic charges =   0.00000

 Dipole moment (field-independent basis, Debye):
    X=              0.0116    Y=             -0.0380    Z=             -0.0001  Tot=              0.0397
 N-N= 1.715308538793D+02 E-N=-2.637541790096D+02  KE=-5.646807801720D+01
 Leave Link  601 at Mon Sep 14 19:13:45 2015, MaxMem=  402653184 cpu:       0.0
 (Enter /share/apps/g09/l9999.exe)
 1\1\GINC-COMPUTE-0-2\FOpt\RPM6\ZDO\C6H14\HETANJIN\14-Sep-2015\0\\#p PM
 6 opt\\using PM6 to do opt and freq calc.\\0,1\C,0.4518220209,-0.88729
 21491,1.295207212\H,-0.3868367276,-1.5901854942,1.3257205519\H,0.39294
 66675,-0.2664359061,2.1941998479\H,1.3729044732,-1.4745623746,1.359088
 4077\C,0.4201983263,-0.0303932346,0.0161519655\C,-0.8529662667,0.85859
 75946,-0.0140579093\H,-0.8170296932,1.5073549451,-0.9106121473\H,-0.83
 18682351,1.5460403585,0.853681584\C,-2.1668250591,0.0824143567,-0.0082

 Normal termination of Gaussian 09 at Mon Sep 14 19:13:45 2015.
