 Gaussian 09, Revision D.01,
 Gaussian 09:  ES64L-G09RevD.01 24-Apr-2013

 ----------------------------------------------
 #p B3LYP/6-31G(d) opt=tight int=ultrafine freq
 ----------------------------------------------

 ---------------------------------------------
 using B3LYP/6-31G(d) to do opt and freq calc.
 ---------------------------------------------
 Symbolic Z-matrix:
 Charge =  0 Multiplicity = 2

 SCF Done:  E(UB3LYP) =  -236.401701141     A.U. after   14 cycles
 SCF Done:  E(UB3LYP) =  -236.409787262     A.U. after   13 cycles
 SCF Done:  E(UB3LYP) =  -236.411836391     A.U. after   13 cycles
 SCF Done:  E(UB3LYP) =  -236.411992044     A.U. after   11 cycles
 SCF Done:  E(UB3LYP) =  -236.412019445     A.U. after   10 cycles
 SCF Done:  E(UB3LYP) =  -236.412026598     A.U. after    9 cycles
 SCF Done:  E(UB3LYP) =  -236.412027033     A.U. after    8 cycles
 SCF Done:  E(UB3LYP) =  -236.412027248     A.U. after    7 cycles
 SCF Done:  E(UB3LYP) =  -236.412027501     A.U. after    7 cycles
 SCF Done:  E(UB3LYP) =  -236.412027571     A.U. after    7 cycles
 SCF Done:  E(UB3LYP) =  -236.412027583     A.U. after    7 cycles
 SCF Done:  E(UB3LYP) =  -236.412027583     A.U. after    5 cycles
 Optimization completed.
    -- Stationary point found.
 Normal termination of Gaussian 09 at Sat Nov  7 02:09:30 2015.

 --------------------------------------------------------------------
 #P Geom=AllCheck Guess=TCheck SCRF=Check GenChk UB3LYP/6-31G(d) Freq
 --------------------------------------------------------------------

 Structure from the checkpoint file:  "/state/partition1/Gau-4578.chk"
 ---------------------------------------------
 using B3LYP/6-31G(d) to do opt and freq calc.
 ---------------------------------------------
 Charge =  0 Multiplicity = 2

                         Standard orientation:
 ---------------------------------------------------------------------
 Center     Atomic      Atomic             Coordinates (Angstroms)
 Number     Number       Type             X           Y           Z
 ---------------------------------------------------------------------
      1          6           0        2.105388   -1.026545    0.024912
      2          1           0        1.877865   -2.020937   -0.377565
      3          1           0        2.210996   -1.124415    1.113400
      4          1           0        3.077998   -0.716466   -0.375475
      5          6           0        1.007315   -0.012878   -0.330491
      6          1           0        0.943159    0.041361   -1.428841
      7          6           0       -0.360020   -0.494599    0.192017
      8          1           0       -0.337972   -0.526131    1.291182
      9          1           0       -0.516009   -1.531835   -0.138659
     10          6           0       -1.567859    0.343991   -0.265121
     11          1           0       -1.524257    0.439488   -1.368423
     12          1           0       -1.486292    1.372171    0.112815
     13          6           0       -2.879494   -0.235599    0.146794
     14          1           0       -3.760208    0.389183    0.258258
     15          1           0       -3.019554   -1.312395    0.188776
     16          6           0        1.377517    1.384988    0.189179
     17          1           0        0.651573    2.145818   -0.117248
     18          1           0        1.426576    1.392313    1.286269
     19          1           0        2.359040    1.695689   -0.188231
 ---------------------------------------------------------------------

 SCF Done:  E(UB3LYP) =  -236.412027583     A.U. after    1 cycles

 The electronic state is 2-A.
 Alpha  occ. eigenvalues --  -10.18493 -10.18356 -10.18245 -10.17580 -10.16959
 Alpha  occ. eigenvalues --  -10.16945  -0.80847  -0.75754  -0.67774  -0.66533
 Alpha  occ. eigenvalues --   -0.58516  -0.55400  -0.46926  -0.43930  -0.43123
 Alpha  occ. eigenvalues --   -0.42078  -0.39724  -0.37988  -0.37056  -0.35715
 Alpha  occ. eigenvalues --   -0.34776  -0.31881  -0.31574  -0.31089  -0.19510
 Alpha virt. eigenvalues --    0.08709   0.11940   0.12656   0.12897   0.14532
 Alpha virt. eigenvalues --    0.15612   0.16232   0.17193   0.18542   0.19179
 Alpha virt. eigenvalues --    0.19573   0.21309   0.22520   0.23732   0.25040

  Beta  occ. eigenvalues --  -10.18490 -10.18335 -10.17540 -10.16973 -10.16959
  Beta  occ. eigenvalues --  -10.16946  -0.80657  -0.74807  -0.67771  -0.65168
  Beta  occ. eigenvalues --   -0.56950  -0.55289  -0.46713  -0.43732  -0.42609
  Beta  occ. eigenvalues --   -0.41708  -0.39193  -0.37936  -0.36686  -0.35186
  Beta  occ. eigenvalues --   -0.34527  -0.31788  -0.31505  -0.30908
  Beta virt. eigenvalues --   -0.03462   0.08747   0.12150   0.12746   0.13543
  Beta virt. eigenvalues --    0.14936   0.15767   0.16414   0.17393   0.18701
  Beta virt. eigenvalues --    0.19403   0.19800   0.21399   0.22753   0.23872

 Mulliken charges and spin densities:
               1          2
     1  C   -0.442133  -0.000333
     2  H    0.139096   0.000003
     3  H    0.138790   0.000130
     4  H    0.139011   0.000382
     5  C   -0.067413   0.002931
     6  H    0.119107  -0.000097
     7  C   -0.246216   0.014566
     8  H    0.131074   0.001166
     9  H    0.126556  -0.001113
    10  C   -0.266741  -0.078394
    11  H    0.140626   0.059384
    12  H    0.143359   0.014380
    13  C   -0.309836   1.089217
    14  H    0.138915  -0.051352
    15  H    0.138659  -0.050982
    16  C   -0.444696   0.000182
    17  H    0.143667  -0.000132
    18  H    0.138498   0.000028
    19  H    0.139680   0.000033
 Sum of Mulliken charges =   0.00000   1.00000

 Dipole moment (field-independent basis, Debye):
    X=              0.1602    Y=              0.0856    Z=             -0.2130  Tot=              0.2800
 Quadrupole moment (field-independent basis, Debye-Ang):
   XX=            -41.4129   YY=            -40.4036   ZZ=            -41.1750
   XY=             -0.2053   XZ=              0.1020   YZ=              0.0888

  Exact polarizability:  74.432   0.274  62.175  -1.697  -0.499  53.047
 Approx polarizability:  86.103   0.861  83.565  -2.517  -0.676  78.260

                      1                      2                      3
                      A                      A                      A
 Frequencies --     78.9184               112.5573               126.9464
 Red. masses --      1.5720                 2.2758                 1.1283
 Frc consts  --      0.0058                 0.0170                 0.0107
 IR Inten    --      0.1539                 0.0011                 0.1879

                      4                      5                      6
                      A                      A                      A
 Frequencies --    184.4950               229.6162               254.5856
 Red. masses --      2.4501                 1.0542                 1.1176
 Frc consts  --      0.0491                 0.0327                 0.0427
 IR Inten    --      0.0686                 0.0156                 0.0109

                      7                      8                      9
                      A                      A                      A
 Frequencies --    323.7133               376.4615               433.1162
 Red. masses --      2.4371                 2.2219                 1.5761
 Frc consts  --      0.1505                 0.1855                 0.1742
 IR Inten    --      0.4801                 1.0115                11.2673

                     10                     11                     12
                      A                      A                      A
 Frequencies --    446.0684               475.8257               748.7994
 Red. masses --      2.5485                 1.5974                 1.1970
 Frc consts  --      0.2988                 0.2131                 0.3954
 IR Inten    --      2.6062                28.8240                 0.9145

                     13                     14                     15
                      A                      A                      A
 Frequencies --    817.9908               896.0913               936.1217
 Red. masses --      2.3157                 1.5757                 1.6087
 Frc consts  --      0.9129                 0.7455                 0.8306
 IR Inten    --      0.5617                 0.9061                 3.4879

                     16                     17                     18
                      A                      A                      A
 Frequencies --    939.9224               975.2305               998.9284
 Red. masses --      1.2066                 1.4857                 1.9327
 Frc consts  --      0.6280                 0.8325                 1.1363
 IR Inten    --      0.8103                 0.0577                 0.3019

                     19                     20                     21
                      A                      A                      A
 Frequencies --   1058.5985              1091.9214              1129.3113
 Red. masses --      1.8160                 2.4849                 1.4960
 Frc consts  --      1.1990                 1.7456                 1.1241
 IR Inten    --      0.7734                 0.3997                 0.2422

                     22                     23                     24
                      A                      A                      A
 Frequencies --   1176.5259              1205.6695              1242.8085
 Red. masses --      2.1035                 1.7413                 1.5731
 Frc consts  --      1.7155                 1.4914                 1.4316
 IR Inten    --      0.3236                 3.2314                 2.0997

                     25                     26                     27
                      A                      A                      A
 Frequencies --   1310.7237              1324.9679              1370.3196
 Red. masses --      1.2304                 1.1868                 1.3896
 Frc consts  --      1.2455                 1.2275                 1.5374
 IR Inten    --      1.0660                 2.1893                 2.2490

                     28                     29                     30
                      A                      A                      A
 Frequencies --   1388.6295              1414.6253              1429.8604
 Red. masses --      1.3420                 1.5460                 1.2643
 Frc consts  --      1.5247                 1.8228                 1.5229
 IR Inten    --      3.7663                 0.5560                 4.9692

                     31                     32                     33
                      A                      A                      A
 Frequencies --   1448.9837              1487.6493              1498.3659
 Red. masses --      1.2355                 1.1627                 1.0856
 Frc consts  --      1.5283                 1.5161                 1.4360
 IR Inten    --      3.5022                 1.2548                 0.5388

                     34                     35                     36
                      A                      A                      A
 Frequencies --   1515.6820              1520.6315              1527.2097
 Red. masses --      1.0718                 1.0495                 1.0657
 Frc consts  --      1.4507                 1.4298                 1.4645
 IR Inten    --      0.2993                 0.9617                 2.0349

                     37                     38                     39
                      A                      A                      A
 Frequencies --   1535.5896              1541.0582              2922.7993
 Red. masses --      1.0545                 1.0478                 1.0730
 Frc consts  --      1.4650                 1.4661                 5.4005
 IR Inten    --      2.9531                10.4750                31.7052

                     40                     41                     42
                      A                      A                      A
 Frequencies --   3001.2799              3018.4152              3034.5291
 Red. masses --      1.0826                 1.0595                 1.0368
 Frc consts  --      5.7456                 5.6875                 5.6252
 IR Inten    --     16.9798                27.5144                27.4987

                     43                     44                     45
                      A                      A                      A
 Frequencies --   3040.2846              3043.1152              3062.2269
 Red. masses --      1.0412                 1.0836                 1.0986
 Frc consts  --      5.6706                 5.9121                 6.0699
 IR Inten    --     23.8689                11.4379                62.0222

                     46                     47                     48
                      A                      A                      A
 Frequencies --   3097.0475              3103.1566              3107.5410
 Red. masses --      1.1013                 1.1008                 1.1022
 Frc consts  --      6.2236                 6.2456                 6.2708
 IR Inten    --      6.1717                71.1985                49.7924

                     49                     50                     51
                      A                      A                      A
 Frequencies --   3115.4345              3159.7171              3257.2895
 Red. masses --      1.1007                 1.0511                 1.1181
 Frc consts  --      6.2945                 6.1829                 6.9892
 IR Inten    --     42.2321                20.9579                20.4234

 - Thermochemistry -
 -------------------
 Temperature   298.150 Kelvin.  Pressure   1.00000 Atm.
 Atom     1 has atomic number  6 and mass  12.00000

 Molecular mass:    85.10173 amu.
 Principal axes and moments of inertia in atomic units:
                           1         2         3
     Eigenvalues --   267.883341022.593731202.61290
           X            1.00000  -0.00140   0.00221
           Y            0.00140   1.00000  -0.00235
           Z           -0.00220   0.00236   0.99999
 This molecule is an asymmetric top.
 Rotational symmetry number  1.
 Rotational temperatures (Kelvin)      0.32333     0.08470     0.07202
 Rotational constants (GHZ):           6.73704     1.76487     1.50068
 Zero-point vibrational energy     457795.0 (Joules/Mol)
                                  109.41564 (Kcal/Mol)
 Warning -- explicit consideration of  11 degrees of freedom as
           vibrations may cause significant error
 Vibrational temperatures:    113.55   161.94   182.65   265.45   330.37
          (Kelvin)            366.29   465.75   541.64   623.16   641.79
                              684.61  1077.35  1176.90  1289.27  1346.87
                             1352.34  1403.14  1437.23  1523.09  1571.03
                             1624.83  1692.76  1734.69  1788.12  1885.84
                             1906.33  1971.58  1997.93  2035.33  2057.25
                             2084.76  2140.39  2155.81  2180.73  2187.85
                             2197.31  2209.37  2217.24  4205.25  4318.17
                             4342.82  4366.01  4374.29  4378.36  4405.86
                             4455.96  4464.74  4471.05  4482.41  4546.12
                             4686.51

 Zero-point correction=                           0.174365 (Hartree/Particle)
 Thermal correction to Energy=                    0.183071
 Thermal correction to Enthalpy=                  0.184015
 Thermal correction to Gibbs Free Energy=         0.141169
 Sum of electronic and zero-point Energies=           -236.237663
 Sum of electronic and thermal Energies=              -236.228957
 Sum of electronic and thermal Enthalpies=            -236.228012
 Sum of electronic and thermal Free Energies=         -236.270859

                     E (Thermal)             CV                S
                      KCal/Mol        Cal/Mol-Kelvin    Cal/Mol-Kelvin
 Total                  114.879             30.719             90.178
 Electronic               0.000              0.000              1.377
 Translational            0.889              2.981             39.237
 Rotational               0.889              2.981             27.290
 Vibrational            113.101             24.757             22.273
 Vibration     1          0.600              1.963              3.918
 Vibration     2          0.607              1.939              3.224
 Vibration     3          0.611              1.926              2.992
 Vibration     4          0.631              1.861              2.282
 Vibration     5          0.652              1.796              1.882
 Vibration     6          0.665              1.755              1.699
 Vibration     7          0.708              1.628              1.291
 Vibration     8          0.747              1.520              1.053
 Vibration     9          0.794              1.398              0.849
 Vibration    10          0.805              1.370              0.808
 Vibration    11          0.832              1.304              0.721

 Optimization completed.
    -- Stationary point found.
 Normal termination of Gaussian 09 at Sat Nov  7 02:16:54 2015.
