 Gaussian 09, Revision A.01,
 Gaussian 09:  EM64L-G09RevA.01  8-May-2009

 ----------
 #p PM6 opt
 ----------

 ----------------------------------
 using PM6 to do opt and freq calc.
 ----------------------------------
 Symbolic Z-matrix:
 Charge =  0 Multiplicity = 1

 SCF Done:  E(RPM6) = -0.537119251441E-01 A.U. after   12 cycles
 SCF Done:  E(RPM6) = -0.571274207230E-01 A.U. after   11 cycles
 SCF Done:  E(RPM6) = -0.574875209834E-01 A.U. after   10 cycles
 SCF Done:  E(RPM6) = -0.575604537619E-01 A.U. after    9 cycles
 SCF Done:  E(RPM6) = -0.575853711212E-01 A.U. after   10 cycles
 SCF Done:  E(RPM6) = -0.576037778864E-01 A.U. after   10 cycles
 SCF Done:  E(RPM6) = -0.576060933642E-01 A.U. after    8 cycles
 SCF Done:  E(RPM6) = -0.576066718099E-01 A.U. after    8 cycles
 SCF Done:  E(RPM6) = -0.576066837530E-01 A.U. after    7 cycles
 Optimization completed.
    -- Stationary point found.

                         Standard orientation:
 ---------------------------------------------------------------------
 Center     Atomic      Atomic             Coordinates (Angstroms)
 Number     Number       Type             X           Y           Z
 ---------------------------------------------------------------------
      1          6           0       -0.961933    1.174024    0.873504
      2          1           0       -0.158777    1.899015    1.043179
      3          1           0       -1.033619    0.547250    1.768776
      4          1           0       -1.900344    1.731602    0.789075
      5          6           0       -0.700476    0.337699   -0.384242
      6          1           0       -0.733598    1.027774   -1.266202
      7          6           0        0.700476   -0.337699   -0.384243
      8          1           0        0.733597   -1.027774   -1.266202
      9          6           0        1.807222    0.709901   -0.569803
     10          1           0        1.829768    1.424306    0.260419
     11          1           0        2.793850    0.237409   -0.619124
     12          1           0        1.669444    1.281826   -1.492874
     13          6           0       -1.807222   -0.709902   -0.569803
     14          1           0       -1.669457   -1.281810   -1.492886
     15          1           0       -1.829752   -1.424321    0.260408
     16          1           0       -2.793853   -0.237412   -0.619100
     17          6           0        0.961933   -1.174023    0.873504
     18          1           0        1.033625   -0.547249    1.768775
     19          1           0        0.158775   -1.899011    1.043183
     20          1           0        1.900341   -1.731606    0.789072
 ---------------------------------------------------------------------

 The electronic state is 1-A.
 Alpha  occ. eigenvalues --   -1.06873  -0.96316  -0.89120  -0.87490  -0.77840
 Alpha  occ. eigenvalues --   -0.67231  -0.58717  -0.55602  -0.55043  -0.50800
 Alpha  occ. eigenvalues --   -0.49986  -0.48439  -0.47337  -0.47125  -0.44336
 Alpha  occ. eigenvalues --   -0.44155  -0.41172  -0.40672  -0.39711
 Alpha virt. eigenvalues --    0.15490   0.16131   0.16337   0.18177   0.18410
 Alpha virt. eigenvalues --    0.21686   0.21872   0.22303   0.22353   0.22449
 Alpha virt. eigenvalues --    0.22618   0.22701   0.23077   0.23589   0.23938

 Mulliken atomic charges:
              1
     1  C   -0.486098
     2  H    0.147438
     3  H    0.150655
     4  H    0.143823
     5  C   -0.014435
     6  H    0.110347
     7  C   -0.014435
     8  H    0.110347
     9  C   -0.496857
    10  H    0.151275
    11  H    0.147925
    12  H    0.145928
    13  C   -0.496857
    14  H    0.145928
    15  H    0.151275
    16  H    0.147925
    17  C   -0.486098
    18  H    0.150655
    19  H    0.147438
    20  H    0.143823
 Sum of Mulliken atomic charges =   0.00000

 Dipole moment (field-independent basis, Debye):
    X=              0.0000    Y=              0.0000    Z=              0.1084  Tot=              0.1084
 N-N= 1.706563536868D+02 E-N=-2.620997538009D+02  KE=-5.636887609077D+01
 Leave Link  601 at Mon Sep 14 19:14:20 2015, MaxMem=  402653184 cpu:       0.0
 (Enter /share/apps/g09/l9999.exe)
 1\1\GINC-COMPUTE-0-11\FOpt\RPM6\ZDO\C6H14\HETANJIN\14-Sep-2015\0\\#p P
 M6 opt\\using PM6 to do opt and freq calc.\\0,1\C,-1.7045392706,-1.009
 6583344,-0.5298119026\H,-1.2488089405,-1.9862829649,-0.7246835796\H,-1
 .9907419809,-0.5816394259,-1.4964475336\H,-2.6252799765,-1.1800280673,
 0.0375044569\C,-0.7456115365,-0.0905063244,0.2352633718\H,-0.572029842
 7,-0.5428713268,1.2454061663\C,0.6437539356,0.0439446034,-0.450605513\
 H,1.2098789845,0.8356785821,0.1042032706\C,1.4358410127,-1.2657420587,

 Normal termination of Gaussian 09 at Mon Sep 14 19:14:21 2015.
