 Gaussian 09, Revision A.01,
 Gaussian 09:  EM64L-G09RevA.01  8-May-2009

 ----------
 #p PM6 opt
 ----------

 ----------------------------------
 using PM6 to do opt and freq calc.
 ----------------------------------
 Symbolic Z-matrix:
 Charge =  0 Multiplicity = 1

 SCF Done:  E(RPM6) = -0.538799368155E-01 A.U. after   12 cycles
 SCF Done:  E(RPM6) = -0.562641773758E-01 A.U. after   16 cycles
 SCF Done:  E(RPM6) = -0.564726546704E-01 A.U. after   15 cycles
 SCF Done:  E(RPM6) = -0.565338558089E-01 A.U. after   10 cycles
 SCF Done:  E(RPM6) = -0.565659658108E-01 A.U. after   11 cycles
 SCF Done:  E(RPM6) = -0.565743458264E-01 A.U. after   10 cycles
 SCF Done:  E(RPM6) = -0.565770596187E-01 A.U. after    9 cycles
 SCF Done:  E(RPM6) = -0.565776786280E-01 A.U. after    8 cycles
 SCF Done:  E(RPM6) = -0.565778129921E-01 A.U. after    8 cycles
 SCF Done:  E(RPM6) = -0.565778603643E-01 A.U. after   15 cycles
 Optimization completed.
    -- Stationary point found.

                         Standard orientation:
 ---------------------------------------------------------------------
 Center     Atomic      Atomic             Coordinates (Angstroms)
 Number     Number       Type             X           Y           Z
 ---------------------------------------------------------------------
      1          6           0        3.002158   -0.349089    0.106836
      2          1           0        3.067173   -0.455142    1.195565
      3          1           0        3.500557    0.589388   -0.160763
      4          1           0        3.581125   -1.166214   -0.337479
      5          6           0        1.553200   -0.374016   -0.375013
      6          1           0        1.524186   -0.302787   -1.479748
      7          1           0        1.091737   -1.349404   -0.124364
      8          6           0        0.728388    0.764799    0.241219
      9          1           0        1.195526    1.736849   -0.010733
     10          1           0        0.761401    0.697140    1.345552
     11          6           0       -0.728388    0.764798   -0.241220
     12          1           0       -0.761401    0.697137   -1.345553
     13          1           0       -1.195526    1.736850    0.010729
     14          6           0       -1.553201   -0.374013    0.375016
     15          1           0       -1.524190   -0.302778    1.479750
     16          1           0       -1.091736   -1.349403    0.124374
     17          6           0       -3.002157   -0.349090   -0.106837
     18          1           0       -3.067168   -0.455131   -1.195568
     19          1           0       -3.581121   -1.166223    0.337466
     20          1           0       -3.500563    0.589381    0.160770
 ---------------------------------------------------------------------

 The electronic state is 1-A.
 Alpha  occ. eigenvalues --   -1.05702  -0.99732  -0.91688  -0.80573  -0.76439
 Alpha  occ. eigenvalues --   -0.72217  -0.58085  -0.57374  -0.54650  -0.51814
 Alpha  occ. eigenvalues --   -0.51589  -0.49046  -0.46316  -0.46109  -0.44038
 Alpha  occ. eigenvalues --   -0.42700  -0.42125  -0.40732  -0.40132
 Alpha virt. eigenvalues --    0.15051   0.16348   0.16992   0.17042   0.18588
 Alpha virt. eigenvalues --    0.20675   0.20751   0.21991   0.22001   0.22229
 Alpha virt. eigenvalues --    0.22349   0.23231   0.23468   0.24261   0.24322

 Mulliken atomic charges:
              1
     1  C   -0.466673
     2  H    0.146329
     3  H    0.146104
     4  H    0.143999
     5  C   -0.216827
     6  H    0.125370
     7  H    0.126681
     8  C   -0.266510
     9  H    0.129048
    10  H    0.132479
    11  C   -0.266510
    12  H    0.132479
    13  H    0.129048
    14  C   -0.216827
    15  H    0.125370
    16  H    0.126681
    17  C   -0.466673
    18  H    0.146329
    19  H    0.143999
    20  H    0.146104
 Sum of Mulliken atomic charges =   0.00000

 Dipole moment (field-independent basis, Debye):
    X=              0.0000    Y=              0.0170    Z=              0.0000  Tot=              0.0170
 N-N= 1.628281721230D+02 E-N=-2.466511648875D+02  KE=-5.609716449873D+01
 Leave Link  601 at Mon Sep 14 19:14:29 2015, MaxMem=  402653184 cpu:       0.0
 (Enter /share/apps/g09/l9999.exe)
 1\1\GINC-COMPUTE-0-10\FOpt\RPM6\ZDO\C6H14\HETANJIN\14-Sep-2015\0\\#p P
 M6 opt\\using PM6 to do opt and freq calc.\\0,1\C,1.95413644,-2.567212
 1542,-0.5825859238\H,1.9909696117,-2.947777284,0.4443604361\H,2.844633
 8848,-1.9467772446,-0.7336654583\H,2.0365743803,-3.4284674717,-1.25471
 30118\C,0.6705190045,-1.7828069721,-0.8458585099\H,0.6471111902,-1.445
 0434138,-1.9002406811\H,-0.2068082089,-2.4480306281,-0.7236677897\C,0.
 5400006993,-0.573235498,0.0905471478\H,1.4205506871,0.0867705313,-0.03

 Normal termination of Gaussian 09 at Mon Sep 14 19:14:31 2015.
