 Gaussian 09, Revision A.01,
 Gaussian 09:  EM64L-G09RevA.01  8-May-2009

 ----------
 #p PM6 opt
 ----------

 ----------------------------------
 using PM6 to do opt and freq calc.
 ----------------------------------
 Symbolic Z-matrix:
 Charge =  0 Multiplicity = 1

 SCF Done:  E(RPM6) = -0.535144249149E-01 A.U. after   13 cycles
 SCF Done:  E(RPM6) = -0.564198509943E-01 A.U. after   12 cycles
 SCF Done:  E(RPM6) = -0.567918842199E-01 A.U. after   12 cycles
 SCF Done:  E(RPM6) = -0.569367024087E-01 A.U. after   11 cycles
 SCF Done:  E(RPM6) = -0.570343644762E-01 A.U. after   11 cycles
 SCF Done:  E(RPM6) = -0.570568840162E-01 A.U. after   10 cycles
 SCF Done:  E(RPM6) = -0.570742435847E-01 A.U. after   10 cycles
 SCF Done:  E(RPM6) = -0.570760510551E-01 A.U. after    9 cycles
 SCF Done:  E(RPM6) = -0.570765823542E-01 A.U. after    8 cycles
 SCF Done:  E(RPM6) = -0.570766371517E-01 A.U. after    8 cycles
 Optimization completed.
    -- Stationary point found.

                         Standard orientation:
 ---------------------------------------------------------------------
 Center     Atomic      Atomic             Coordinates (Angstroms)
 Number     Number       Type             X           Y           Z
 ---------------------------------------------------------------------
      1          6           0       -2.226757   -0.871700   -0.216164
      2          1           0       -1.746743   -1.799572    0.117723
      3          1           0       -2.286274   -0.911014   -1.309726
      4          1           0       -3.251939   -0.874187    0.169852
      5          6           0       -1.460995    0.360169    0.260533
      6          1           0       -1.984689    1.272449   -0.086596
      7          1           0       -1.477743    0.410862    1.365811
      8          6           0       -0.000668    0.384268   -0.244295
      9          1           0       -0.000469    0.141740   -1.335285
     10          6           0        0.850254   -0.672345    0.492667
     11          1           0        0.277956   -1.619091    0.564133
     12          1           0        1.027170   -0.350439    1.536425
     13          6           0        2.183799   -0.940458   -0.200882
     14          1           0        2.799168   -0.035051   -0.255617
     15          1           0        2.763089   -1.698985    0.336867
     16          1           0        2.040169   -1.300812   -1.225687
     17          6           0        0.588439    1.789814   -0.062784
     18          1           0        0.029916    2.535642   -0.637324
     19          1           0        0.576242    2.102297    0.986549
     20          1           0        1.629715    1.827672   -0.401573
 ---------------------------------------------------------------------

 The electronic state is 1-A.
 Alpha  occ. eigenvalues --   -1.06456  -0.97259  -0.92666  -0.81882  -0.77286
 Alpha  occ. eigenvalues --   -0.70619  -0.57573  -0.56068  -0.54988  -0.52007
 Alpha  occ. eigenvalues --   -0.51220  -0.48232  -0.46714  -0.46610  -0.44371
 Alpha  occ. eigenvalues --   -0.43812  -0.40857  -0.40693  -0.40161
 Alpha virt. eigenvalues --    0.15323   0.15763   0.16978   0.18051   0.18168
 Alpha virt. eigenvalues --    0.21100   0.21325   0.21985   0.22070   0.22299
 Alpha virt. eigenvalues --    0.22532   0.22983   0.23369   0.23751   0.24733

 Mulliken atomic charges:
              1
     1  C   -0.457610
     2  H    0.146104
     3  H    0.145408
     4  H    0.142406
     5  C   -0.263458
     6  H    0.130479
     7  H    0.130542
     8  C   -0.018358
     9  H    0.117137
    10  C   -0.256027
    11  H    0.130273
    12  H    0.129673
    13  C   -0.457156
    14  H    0.145518
    15  H    0.141568
    16  H    0.144543
    17  C   -0.496435
    18  H    0.145865
    19  H    0.149120
    20  H    0.150409
 Sum of Mulliken atomic charges =   0.00000

 Dipole moment (field-independent basis, Debye):
    X=              0.0208    Y=              0.0020    Z=              0.0007  Tot=              0.0209
 N-N= 1.674984457661D+02 E-N=-2.558716634385D+02  KE=-5.624988467562D+01
 Leave Link  601 at Mon Sep 14 19:14:28 2015, MaxMem=  402653184 cpu:       0.0
 (Enter /share/apps/g09/l9999.exe)
 1\1\GINC-COMPUTE-0-11\FOpt\RPM6\ZDO\C6H14\HETANJIN\14-Sep-2015\0\\#p P
 M6 opt\\using PM6 to do opt and freq calc.\\0,1\C,-2.621675477,-0.0568
 207471,0.0224170162\H,-2.8156424512,0.3772758597,-0.9659037235\H,-2.61
 16457876,0.7678293723,0.7440937035\H,-3.4714544732,-0.7018556955,0.271
 0501477\C,-1.3105378107,-0.8388261971,0.0451776203\H,-1.1598075142,-1.
 2693934745,1.0545840085\H,-1.3756326517,-1.7051284748,-0.6402214482\C,
 -0.0911518567,0.0345979261,-0.3265958312\H,-0.1546826679,0.9916756312,

 Normal termination of Gaussian 09 at Mon Sep 14 19:14:29 2015.
