 Gaussian 09, Revision D.01,
 Gaussian 09:  ES64L-G09RevD.01 24-Apr-2013

 ----------------------------------------------
 #p B3LYP/6-31G(d) opt=tight int=ultrafine freq
 ----------------------------------------------

 ---------------------------------------------
 using B3LYP/6-31G(d) to do opt and freq calc.
 ---------------------------------------------
 Symbolic Z-matrix:
 Charge =  0 Multiplicity = 2

 SCF Done:  E(UB3LYP) =  -236.399357217     A.U. after   14 cycles
 SCF Done:  E(UB3LYP) =  -236.407407876     A.U. after   13 cycles
 SCF Done:  E(UB3LYP) =  -236.409431788     A.U. after   13 cycles
 SCF Done:  E(UB3LYP) =  -236.409622336     A.U. after   11 cycles
 SCF Done:  E(UB3LYP) =  -236.409664233     A.U. after   11 cycles
 SCF Done:  E(UB3LYP) =  -236.409668154     A.U. after   11 cycles
 SCF Done:  E(UB3LYP) =  -236.409680820     A.U. after   10 cycles
 SCF Done:  E(UB3LYP) =  -236.409685418     A.U. after   10 cycles
 SCF Done:  E(UB3LYP) =  -236.409689659     A.U. after   11 cycles
 SCF Done:  E(UB3LYP) =  -236.409790346     A.U. after   12 cycles
 SCF Done:  E(UB3LYP) =  -236.410454931     A.U. after   10 cycles
 SCF Done:  E(UB3LYP) =  -236.410467984     A.U. after   11 cycles
 SCF Done:  E(UB3LYP) =  -236.410477116     A.U. after   10 cycles
 SCF Done:  E(UB3LYP) =  -236.410486428     A.U. after   10 cycles
 SCF Done:  E(UB3LYP) =  -236.410488617     A.U. after    8 cycles
 SCF Done:  E(UB3LYP) =  -236.410488750     A.U. after    7 cycles
 SCF Done:  E(UB3LYP) =  -236.410488789     A.U. after    7 cycles
 SCF Done:  E(UB3LYP) =  -236.410488790     A.U. after    5 cycles
 SCF Done:  E(UB3LYP) =  -236.410488790     A.U. after    4 cycles
 Optimization completed.
    -- Stationary point found.
 Normal termination of Gaussian 09 at Sat Nov  7 02:40:52 2015.

 --------------------------------------------------------------------
 #P Geom=AllCheck Guess=TCheck SCRF=Check GenChk UB3LYP/6-31G(d) Freq
 --------------------------------------------------------------------

 Structure from the checkpoint file:  "/state/partition1/Gau-7472.chk"
 ---------------------------------------------
 using B3LYP/6-31G(d) to do opt and freq calc.
 ---------------------------------------------
 Charge =  0 Multiplicity = 2

                         Standard orientation:
 ---------------------------------------------------------------------
 Center     Atomic      Atomic             Coordinates (Angstroms)
 Number     Number       Type             X           Y           Z
 ---------------------------------------------------------------------
      1          6           0       -1.552333    1.185923    0.040620
      2          1           0       -1.092356    2.128358   -0.273927
      3          1           0       -1.712493    1.236853    1.126146
      4          1           0       -2.537721    1.115211   -0.434961
      5          6           0       -0.677975   -0.022521   -0.327816
      6          1           0       -0.533347   -0.016345   -1.419303
      7          6           0        0.743449    0.085657    0.321647
      8          1           0        0.588275    0.084765    1.412213
      9          6           0        1.639809   -1.118426   -0.035548
     10          1           0        1.764428   -1.201219   -1.123266
     11          1           0        2.635926   -0.998870    0.403734
     12          1           0        1.226009   -2.063872    0.328826
     13          6           0       -1.399242   -1.325904    0.051193
     14          1           0       -0.880038   -2.215748   -0.317709
     15          1           0       -1.494142   -1.418924    1.141440
     16          1           0       -2.411978   -1.340048   -0.369242
     17          6           0        1.435874    1.360203   -0.053662
     18          1           0        1.397882    2.244373    0.574115
     19          1           0        1.912054    1.455869   -1.026676
 ---------------------------------------------------------------------

 SCF Done:  E(UB3LYP) =  -236.410488790     A.U. after    1 cycles

 The electronic state is 2-A.
 Alpha  occ. eigenvalues --  -10.18735 -10.18620 -10.18203 -10.17062 -10.16940
 Alpha  occ. eigenvalues --  -10.16718  -0.81396  -0.74255  -0.68471  -0.66028
 Alpha  occ. eigenvalues --   -0.59944  -0.54504  -0.45806  -0.44417  -0.43174
 Alpha  occ. eigenvalues --   -0.41668  -0.39144  -0.38004  -0.37329  -0.35759
 Alpha  occ. eigenvalues --   -0.34242  -0.32202  -0.31833  -0.31189  -0.19508
 Alpha virt. eigenvalues --    0.08939   0.12000   0.12890   0.13483   0.15031
 Alpha virt. eigenvalues --    0.16267   0.16918   0.17478   0.17926   0.18573
 Alpha virt. eigenvalues --    0.19638   0.20859   0.22137   0.24116   0.25710

  Beta  occ. eigenvalues --  -10.18823 -10.18490 -10.17002 -10.16930 -10.16824
  Beta  occ. eigenvalues --  -10.16704  -0.80900  -0.73682  -0.67991  -0.64717
  Beta  occ. eigenvalues --   -0.58828  -0.54093  -0.45413  -0.44090  -0.42884
  Beta  occ. eigenvalues --   -0.41342  -0.38852  -0.37931  -0.37125  -0.35447
  Beta  occ. eigenvalues --   -0.34093  -0.31852  -0.31430  -0.30771
  Beta virt. eigenvalues --   -0.03798   0.09036   0.12093   0.13286   0.14204
  Beta virt. eigenvalues --    0.15122   0.16596   0.17142   0.17692   0.18041
  Beta virt. eigenvalues --    0.18671   0.19746   0.21129   0.22302   0.24362

 Mulliken charges and spin densities:
               1          2
     1  C   -0.445443   0.005998
     2  H    0.146730   0.001547
     3  H    0.135098   0.000861
     4  H    0.137869  -0.000654
     5  C   -0.056819   0.048176
     6  H    0.117400  -0.000695
     7  C   -0.066402  -0.075892
     8  H    0.119569   0.007424
     9  C   -0.454223   0.018491
    10  H    0.138743  -0.001267
    11  H    0.146345   0.000468
    12  H    0.145520   0.005413
    13  C   -0.449574   0.005474
    14  H    0.145478  -0.000162
    15  H    0.137688  -0.000215
    16  H    0.140360   0.003024
    17  C   -0.317499   1.084594
    18  H    0.142806  -0.051594
    19  H    0.136355  -0.050991
 Sum of Mulliken charges =   0.00000   1.00000

 Dipole moment (field-independent basis, Debye):
    X=             -0.1196    Y=             -0.0951    Z=             -0.0257  Tot=              0.1550
 Quadrupole moment (field-independent basis, Debye-Ang):
   XX=            -41.7326   YY=            -40.9590   ZZ=            -40.0996
   XY=              0.1093   XZ=             -0.2152   YZ=              0.1714

  Exact polarizability:  67.117   1.685  65.914  -1.459   0.469  56.237
 Approx polarizability:  83.247   3.027  84.452  -2.113   0.664  83.531

                      1                      2                      3
                      A                      A                      A
 Frequencies --     70.6894               102.1317               208.2966
 Red. masses --      2.2479                 1.0596                 1.3075
 Frc consts  --      0.0066                 0.0065                 0.0334
 IR Inten    --      0.1335                 1.0610                 0.0967

                      4                      5                      6
                      A                      A                      A
 Frequencies --    214.6596               242.3472               280.5039
 Red. masses --      1.1157                 1.1277                 1.5923
 Frc consts  --      0.0303                 0.0390                 0.0738
 IR Inten    --      0.0547                 0.0472                 0.7264

                      7                      8                      9
                      A                      A                      A
 Frequencies --    340.0529               361.9799               386.6644
 Red. masses --      1.7001                 1.8728                 1.9208
 Frc consts  --      0.1158                 0.1446                 0.1692
 IR Inten    --      5.4729                 1.4409                 4.3387

                     10                     11                     12
                      A                      A                      A
 Frequencies --    415.4018               491.6297               514.2958
 Red. masses --      2.4878                 2.1845                 2.3056
 Frc consts  --      0.2529                 0.3111                 0.3593
 IR Inten    --      1.9740                 3.3813                30.6695

                     13                     14                     15
                      A                      A                      A
 Frequencies --    759.8109               889.5810               923.0798
 Red. masses --      2.2515                 2.3925                 1.2025
 Frc consts  --      0.7658                 1.1155                 0.6037
 IR Inten    --      0.5297                 0.8328                 1.0148

                     16                     17                     18
                      A                      A                      A
 Frequencies --    937.0530               950.1070               971.6891
 Red. masses --      1.2571                 1.8154                 1.4471
 Frc consts  --      0.6504                 0.9655                 0.8050
 IR Inten    --      0.3919                 1.7316                 0.4159

                     19                     20                     21
                      A                      A                      A
 Frequencies --   1001.4807              1079.2917              1127.9609
 Red. masses --      1.2605                 2.5729                 2.1050
 Frc consts  --      0.7449                 1.7659                 1.5780
 IR Inten    --      6.5292                 0.3758                 1.3215

                     22                     23                     24
                      A                      A                      A
 Frequencies --   1184.8695              1194.6847              1206.0693
 Red. masses --      1.9509                 1.7763                 2.0350
 Frc consts  --      1.6137                 1.4937                 1.7441
 IR Inten    --      1.4406                 5.5214                 0.6389

                     25                     26                     27
                      A                      A                      A
 Frequencies --   1310.3636              1358.8297              1371.4079
 Red. masses --      1.3329                 1.2901                 1.3685
 Frc consts  --      1.3485                 1.4035                 1.5164
 IR Inten    --      6.4535                 4.1347                 1.3358

                     28                     29                     30
                      A                      A                      A
 Frequencies --   1374.8285              1425.7483              1432.2774
 Red. masses --      1.3610                 1.2646                 1.2234
 Frc consts  --      1.5157                 1.5145                 1.4787
 IR Inten    --      1.1190                 2.1079                 4.9950

                     31                     32                     33
                      A                      A                      A
 Frequencies --   1446.2715              1487.9189              1517.6542
 Red. masses --      1.2236                 1.1699                 1.0526
 Frc consts  --      1.5080                 1.5260                 1.4284
 IR Inten    --      3.0119                 0.4127                 1.1608

                     34                     35                     36
                      A                      A                      A
 Frequencies --   1520.3393              1526.6670              1530.7065
 Red. masses --      1.0435                 1.0565                 1.0430
 Frc consts  --      1.4212                 1.4507                 1.4399
 IR Inten    --      2.0198                 1.7212                12.0610

                     37                     38                     39
                      A                      A                      A
 Frequencies --   1536.2617              1547.9024              2998.1903
 Red. masses --      1.0505                 1.0460                 1.0809
 Frc consts  --      1.4608                 1.4767                 5.7247
 IR Inten    --      5.0346                 3.1876                 2.1017

                     40                     41                     42
                      A                      A                      A
 Frequencies --   3013.6152              3035.4501              3041.1651
 Red. masses --      1.0849                 1.0382                 1.0387
 Frc consts  --      5.8050                 5.6360                 5.6599
 IR Inten    --     34.4799                20.8959                47.5256

                     43                     44                     45
                      A                      A                      A
 Frequencies --   3044.0186              3095.2699              3102.3048
 Red. masses --      1.0390                 1.1006                 1.0997
 Frc consts  --      5.6723                 6.2127                 6.2356
 IR Inten    --     17.8890                 0.9552                68.0241

                     46                     47                     48
                      A                      A                      A
 Frequencies --   3109.1601              3118.7228              3120.3000
 Red. masses --      1.0988                 1.1016                 1.1011
 Frc consts  --      6.2583                 6.3128                 6.3164
 IR Inten    --     44.1622                11.7225                56.7354

                     49                     50                     51
                      A                      A                      A
 Frequencies --   3130.7629              3156.0376              3256.5026
 Red. masses --      1.0994                 1.0518                 1.1174
 Frc consts  --      6.3489                 6.1724                 6.9817
 IR Inten    --     28.6065                17.6379                16.9969

 - Thermochemistry -
 -------------------
 Temperature   298.150 Kelvin.  Pressure   1.00000 Atm.
 Atom     1 has atomic number  6 and mass  12.00000

 Molecular mass:    85.10173 amu.
 Principal axes and moments of inertia in atomic units:
                           1         2         3
     Eigenvalues --   421.59586 613.42636 944.32355
           X            0.99970  -0.02327  -0.00780
           Y            0.02328   0.99973   0.00126
           Z            0.00776  -0.00144   0.99997
 This molecule is an asymmetric top.
 Rotational symmetry number  1.
 Rotational temperatures (Kelvin)      0.20544     0.14120     0.09172
 Rotational constants (GHZ):           4.28074     2.94207     1.91115
 Zero-point vibrational energy     457350.3 (Joules/Mol)
                                  109.30936 (Kcal/Mol)
 Warning -- explicit consideration of  12 degrees of freedom as
           vibrations may cause significant error
 Vibrational temperatures:    101.71   146.94   299.69   308.85   348.68
          (Kelvin)            403.58   489.26   520.81   556.32   597.67
                              707.34   739.96  1093.20  1279.91  1328.10
                             1348.21  1366.99  1398.04  1440.91  1552.86
                             1622.88  1704.76  1718.88  1735.26  1885.32
                             1955.05  1973.15  1978.07  2051.33  2060.73
                             2080.86  2140.78  2183.56  2187.43  2196.53
                             2202.34  2210.34  2227.08  4313.72  4335.91
                             4367.33  4375.55  4379.66  4453.40  4463.52
                             4473.38  4487.14  4489.41  4504.46  4540.83
                             4685.37

 Zero-point correction=                           0.174196 (Hartree/Particle)
 Thermal correction to Energy=                    0.182914
 Thermal correction to Enthalpy=                  0.183859
 Thermal correction to Gibbs Free Energy=         0.141339
 Sum of electronic and zero-point Energies=           -236.236293
 Sum of electronic and thermal Energies=              -236.227574
 Sum of electronic and thermal Enthalpies=            -236.226630
 Sum of electronic and thermal Free Energies=         -236.269149

                     E (Thermal)             CV                S
                      KCal/Mol        Cal/Mol-Kelvin    Cal/Mol-Kelvin
 Total                  114.781             31.394             89.489
 Electronic               0.000              0.000              1.377
 Translational            0.889              2.981             39.237
 Rotational               0.889              2.981             26.993
 Vibrational            113.003             25.433             21.882
 Vibration     1          0.598              1.968              4.134
 Vibration     2          0.604              1.947              3.413
 Vibration     3          0.642              1.828              2.059
 Vibration     4          0.645              1.819              2.004
 Vibration     5          0.659              1.775              1.786
 Vibration     6          0.680              1.710              1.531
 Vibration     7          0.720              1.595              1.212
 Vibration     8          0.736              1.551              1.114
 Vibration     9          0.755              1.499              1.013
 Vibration    10          0.779              1.437              0.908
 Vibration    11          0.847              1.269              0.679
 Vibration    12          0.869              1.218              0.623

 Optimization completed.
    -- Stationary point found.
 Normal termination of Gaussian 09 at Sat Nov  7 02:48:30 2015.
