 Gaussian 09, Revision D.01,
 Gaussian 09:  ES64L-G09RevD.01 24-Apr-2013

 ----------------------------------------------
 #p B3LYP/6-31G(d) opt=tight int=ultrafine freq
 ----------------------------------------------

 ---------------------------------------------
 using B3LYP/6-31G(d) to do opt and freq calc.
 ---------------------------------------------
 Symbolic Z-matrix:
 Charge =  0 Multiplicity = 2

 SCF Done:  E(UB3LYP) =  -236.401767560     A.U. after   14 cycles
 SCF Done:  E(UB3LYP) =  -236.409678892     A.U. after   13 cycles
 SCF Done:  E(UB3LYP) =  -236.411682566     A.U. after   13 cycles
 SCF Done:  E(UB3LYP) =  -236.411824585     A.U. after   11 cycles
 SCF Done:  E(UB3LYP) =  -236.411849882     A.U. after   10 cycles
 SCF Done:  E(UB3LYP) =  -236.411855624     A.U. after   10 cycles
 SCF Done:  E(UB3LYP) =  -236.411857279     A.U. after    8 cycles
 SCF Done:  E(UB3LYP) =  -236.411857732     A.U. after    8 cycles
 SCF Done:  E(UB3LYP) =  -236.411858452     A.U. after    8 cycles
 SCF Done:  E(UB3LYP) =  -236.411858864     A.U. after    8 cycles
 SCF Done:  E(UB3LYP) =  -236.411858963     A.U. after    8 cycles
 SCF Done:  E(UB3LYP) =  -236.411858966     A.U. after    6 cycles
 SCF Done:  E(UB3LYP) =  -236.411858967     A.U. after    5 cycles
 Optimization completed.
    -- Stationary point found.
 Normal termination of Gaussian 09 at Sat Nov  7 02:12:49 2015.

 --------------------------------------------------------------------
 #P Geom=AllCheck Guess=TCheck SCRF=Check GenChk UB3LYP/6-31G(d) Freq
 --------------------------------------------------------------------

 Structure from the checkpoint file:  "/state/partition1/Gau-14979.chk"
 ---------------------------------------------
 using B3LYP/6-31G(d) to do opt and freq calc.
 ---------------------------------------------
 Charge =  0 Multiplicity = 2

                         Standard orientation:
 ---------------------------------------------------------------------
 Center     Atomic      Atomic             Coordinates (Angstroms)
 Number     Number       Type             X           Y           Z
 ---------------------------------------------------------------------
      1          6           0        2.101117   -1.033535    0.053932
      2          1           0        1.873696   -2.034669   -0.331316
      3          1           0        2.198092   -1.110784    1.144855
      4          1           0        3.077715   -0.733686   -0.344812
      5          6           0        1.008936   -0.023345   -0.329505
      6          1           0        0.952583    0.009127   -1.429019
      7          6           0       -0.363639   -0.493771    0.193080
      8          1           0       -0.354266   -0.492710    1.292808
      9          1           0       -0.519068   -1.538279   -0.109961
     10          6           0       -1.572317    0.342695   -0.305569
     11          1           0       -1.534211    0.373071   -1.404936
     12          1           0       -1.461503    1.378023    0.041017
     13          6           0       -2.888372   -0.199171    0.143469
     14          1           0       -3.322317    0.099227    1.093220
     15          1           0       -3.347415   -1.038932   -0.370619
     16          6           0        1.379578    1.382962    0.165772
     17          1           0        0.658709    2.140248   -0.160501
     18          1           0        1.421379    1.411218    1.262844
     19          1           0        2.364786    1.683123   -0.210651
 ---------------------------------------------------------------------

 SCF Done:  E(UB3LYP) =  -236.411858967     A.U. after    1 cycles

 The electronic state is 2-A.
 Alpha  occ. eigenvalues --  -10.18553 -10.18357 -10.18127 -10.17763 -10.16991
 Alpha  occ. eigenvalues --  -10.16989  -0.80826  -0.75688  -0.67810  -0.66537
 Alpha  occ. eigenvalues --   -0.58439  -0.55367  -0.47037  -0.44283  -0.43575
 Alpha  occ. eigenvalues --   -0.41502  -0.38751  -0.38010  -0.37468  -0.36006
 Alpha  occ. eigenvalues --   -0.33828  -0.32319  -0.31641  -0.31528  -0.19482
 Alpha virt. eigenvalues --    0.08727   0.11872   0.12360   0.13005   0.14802
 Alpha virt. eigenvalues --    0.15525   0.16051   0.17088   0.18276   0.19023
 Alpha virt. eigenvalues --    0.20542   0.21499   0.23138   0.23871   0.24948

  Beta  occ. eigenvalues --  -10.18532 -10.18214 -10.17606 -10.16992 -10.16984
  Beta  occ. eigenvalues --  -10.16977  -0.80559  -0.74688  -0.67800  -0.65087
  Beta  occ. eigenvalues --   -0.56933  -0.55237  -0.46794  -0.43966  -0.43374
  Beta  occ. eigenvalues --   -0.41153  -0.38276  -0.37968  -0.36967  -0.35601
  Beta  occ. eigenvalues --   -0.33584  -0.31933  -0.31525  -0.31290
  Beta virt. eigenvalues --   -0.03651   0.08821   0.12123   0.12549   0.13467
  Beta virt. eigenvalues --    0.15136   0.15685   0.16109   0.17386   0.18431
  Beta virt. eigenvalues --    0.19113   0.20787   0.21610   0.23327   0.24078

 Mulliken charges and spin densities:
               1          2
     1  C   -0.441853   0.001077
     2  H    0.139562  -0.000076
     3  H    0.138838  -0.000021
     4  H    0.139141   0.001921
     5  C   -0.065331   0.011642
     6  H    0.119585  -0.000369
     7  C   -0.239611   0.054093
     8  H    0.126631  -0.000700
     9  H    0.127819  -0.001137
    10  C   -0.271798  -0.078372
    11  H    0.136476   0.016220
    12  H    0.141607   0.009947
    13  C   -0.309816   1.087072
    14  H    0.141249  -0.050864
    15  H    0.140127  -0.050524
    16  C   -0.445194  -0.000391
    17  H    0.144572  -0.000081
    18  H    0.137993   0.000002
    19  H    0.140002   0.000561
 Sum of Mulliken charges =   0.00000   1.00000

 Dipole moment (field-independent basis, Debye):
    X=              0.2882    Y=             -0.0425    Z=             -0.0301  Tot=              0.2929
 Quadrupole moment (field-independent basis, Debye-Ang):
   XX=            -42.3135   YY=            -40.9551   ZZ=            -40.1699
   XY=              0.6109   XZ=             -0.5296   YZ=              0.6256

  Exact polarizability:  75.038   1.896  59.775  -1.749   1.653  56.432
 Approx polarizability:  87.339   2.726  80.010  -2.301   2.571  82.444

                      1                      2                      3
                      A                      A                      A
 Frequencies --     77.8136                86.2245               118.9498
 Red. masses --      1.3930                 1.3638                 1.9071
 Frc consts  --      0.0050                 0.0060                 0.0159
 IR Inten    --      0.1474                 0.6689                 0.0798

                      4                      5                      6
                      A                      A                      A
 Frequencies --    182.8352               229.2042               254.2949
 Red. masses --      2.4579                 1.0578                 1.1184
 Frc consts  --      0.0484                 0.0327                 0.0426
 IR Inten    --      0.1639                 0.0353                 0.0150

                      7                      8                      9
                      A                      A                      A
 Frequencies --    313.7071               371.9622               426.7338
 Red. masses --      2.2468                 2.1124                 1.7786
 Frc consts  --      0.1303                 0.1722                 0.1908
 IR Inten    --      2.3041                 2.1564                 8.0568

                     10                     11                     12
                      A                      A                      A
 Frequencies --    442.4351               524.4998               747.2889
 Red. masses --      2.4487                 1.9353                 1.1041
 Frc consts  --      0.2824                 0.3137                 0.3633
 IR Inten    --      0.1859                41.5882                 1.9087

                     13                     14                     15
                      A                      A                      A
 Frequencies --    822.6952               862.7657               935.4544
 Red. masses --      2.3153                 1.2679                 1.4540
 Frc consts  --      0.9233                 0.5561                 0.7497
 IR Inten    --      0.2080                 0.8464                 1.7691

                     16                     17                     18
                      A                      A                      A
 Frequencies --    947.2133               972.6180              1004.8423
 Red. masses --      1.6695                 1.5023                 3.0150
 Frc consts  --      0.8825                 0.8373                 1.7936
 IR Inten    --      0.2665                 0.2471                 1.4356

                     19                     20                     21
                      A                      A                      A
 Frequencies --   1028.3633              1077.3243              1144.7681
 Red. masses --      1.3030                 3.0383                 2.0334
 Frc consts  --      0.8119                 2.0777                 1.5700
 IR Inten    --      0.5210                 0.5120                 0.8935

                     22                     23                     24
                      A                      A                      A
 Frequencies --   1199.2534              1208.2895              1275.4092
 Red. masses --      1.7831                 1.8623                 1.3711
 Frc consts  --      1.5109                 1.6019                 1.3141
 IR Inten    --      4.0075                 0.6727                 3.6414

                     25                     26                     27
                      A                      A                      A
 Frequencies --   1291.1099              1339.1984              1357.1085
 Red. masses --      1.2369                 1.1123                 1.3043
 Frc consts  --      1.2148                 1.1754                 1.4154
 IR Inten    --      0.3991                 1.4116                 3.5363

                     28                     29                     30
                      A                      A                      A
 Frequencies --   1387.0421              1395.2867              1429.6946
 Red. masses --      1.3372                 1.4611                 1.2634
 Frc consts  --      1.5158                 1.6760                 1.5215
 IR Inten    --      4.3832                 0.0864                 4.8630

                     31                     32                     33
                      A                      A                      A
 Frequencies --   1448.3895              1489.6794              1508.3913
 Red. masses --      1.2302                 1.1404                 1.0999
 Frc consts  --      1.5205                 1.4911                 1.4745
 IR Inten    --      3.7456                 1.9208                 0.1052

                     34                     35                     36
                      A                      A                      A
 Frequencies --   1519.6836              1522.9998              1527.7120
 Red. masses --      1.0505                 1.0817                 1.0786
 Frc consts  --      1.4294                 1.4783                 1.4832
 IR Inten    --      0.5095                 0.9534                 1.8168

                     37                     38                     39
                      A                      A                      A
 Frequencies --   1535.3583              1541.1221              3002.5963
 Red. masses --      1.0543                 1.0479                 1.0824
 Frc consts  --      1.4643                 1.4664                 5.7495
 IR Inten    --      2.8781                10.3532                11.8516

                     40                     41                     42
                      A                      A                      A
 Frequencies --   3013.8790              3025.7995              3034.6122
 Red. masses --      1.0624                 1.0598                 1.0365
 Frc consts  --      5.6859                 5.7168                 5.6237
 IR Inten    --     10.6312                46.7557                35.1219

                     43                     44                     45
                      A                      A                      A
 Frequencies --   3040.6743              3054.3559              3076.7201
 Red. masses --      1.0385                 1.0986                 1.1025
 Frc consts  --      5.6574                 6.0385                 6.1488
 IR Inten    --     27.3331                 2.9222                54.9562

                     46                     47                     48
                      A                      A                      A
 Frequencies --   3096.7968              3103.2913              3107.3925
 Red. masses --      1.1013                 1.1007                 1.1022
 Frc consts  --      6.2229                 6.2455                 6.2707
 IR Inten    --      4.6795                79.0541                48.3618

                     49                     50                     51
                      A                      A                      A
 Frequencies --   3116.1696              3159.8595              3256.2813
 Red. masses --      1.1005                 1.0509                 1.1182
 Frc consts  --      6.2962                 6.1823                 6.9859
 IR Inten    --     41.0361                19.7965                19.7624

 - Thermochemistry -
 -------------------
 Temperature   298.150 Kelvin.  Pressure   1.00000 Atm.
 Atom     1 has atomic number  6 and mass  12.00000

 Molecular mass:    85.10173 amu.
 Principal axes and moments of inertia in atomic units:
                           1         2         3
     Eigenvalues --   269.979251026.552631197.99863
           X            1.00000   0.00202  -0.00007
           Y           -0.00202   0.99998   0.00590
           Z            0.00008  -0.00590   0.99998
 This molecule is an asymmetric top.
 Rotational symmetry number  1.
 Rotational temperatures (Kelvin)      0.32082     0.08437     0.07230
 Rotational constants (GHZ):           6.68474     1.75806     1.50646
 Zero-point vibrational energy     458386.0 (Joules/Mol)
                                  109.55688 (Kcal/Mol)
 Warning -- explicit consideration of  11 degrees of freedom as
           vibrations may cause significant error
 Vibrational temperatures:    111.96   124.06   171.14   263.06   329.77
          (Kelvin)            365.87   451.35   535.17   613.97   636.56
                              754.64  1075.18  1183.67  1241.33  1345.91
                             1362.83  1399.38  1445.74  1479.58  1550.03
                             1647.06  1725.46  1738.46  1835.03  1857.62
                             1926.81  1952.57  1995.64  2007.50  2057.01
                             2083.91  2143.31  2170.24  2186.48  2191.25
                             2198.03  2209.04  2217.33  4320.06  4336.29
                             4353.45  4366.12  4374.85  4394.53  4426.71
                             4455.59  4464.94  4470.84  4483.47  4546.33
                             4685.06

 Zero-point correction=                           0.174590 (Hartree/Particle)
 Thermal correction to Energy=                    0.183363
 Thermal correction to Enthalpy=                  0.184307
 Thermal correction to Gibbs Free Energy=         0.141128
 Sum of electronic and zero-point Energies=           -236.237269
 Sum of electronic and thermal Energies=              -236.228496
 Sum of electronic and thermal Enthalpies=            -236.227552
 Sum of electronic and thermal Free Energies=         -236.270731

                     E (Thermal)             CV                S
                      KCal/Mol        Cal/Mol-Kelvin    Cal/Mol-Kelvin
 Total                  115.062             30.731             90.878
 Electronic               0.000              0.000              1.377
 Translational            0.889              2.981             39.237
 Rotational               0.889              2.981             27.298
 Vibrational            113.285             24.770             22.965
 Vibration     1          0.599              1.964              3.945
 Vibration     2          0.601              1.959              3.744
 Vibration     3          0.609              1.934              3.117
 Vibration     4          0.630              1.863              2.299
 Vibration     5          0.652              1.796              1.885
 Vibration     6          0.665              1.756              1.701
 Vibration     7          0.702              1.648              1.343
 Vibration     8          0.744              1.530              1.072
 Vibration     9          0.788              1.412              0.869
 Vibration    10          0.802              1.378              0.819
 Vibration    11          0.879              1.196              0.600

 Optimization completed.
    -- Stationary point found.
 Normal termination of Gaussian 09 at Sat Nov  7 02:19:56 2015.
