 Gaussian 09, Revision A.01,
 Gaussian 09:  EM64L-G09RevA.01  8-May-2009

 ----------
 #p PM6 opt
 ----------

 ----------------------------------
 using PM6 to do opt and freq calc.
 ----------------------------------
 Symbolic Z-matrix:
 Charge =  0 Multiplicity = 1

 SCF Done:  E(RPM6) = -0.569711284229E-01 A.U. after   13 cycles
 SCF Done:  E(RPM6) = -0.601451122021E-01 A.U. after   12 cycles
 SCF Done:  E(RPM6) = -0.603683816977E-01 A.U. after   11 cycles
 SCF Done:  E(RPM6) = -0.604284622936E-01 A.U. after   11 cycles
 SCF Done:  E(RPM6) = -0.604308268386E-01 A.U. after   10 cycles
 SCF Done:  E(RPM6) = -0.604312390837E-01 A.U. after   10 cycles
 SCF Done:  E(RPM6) = -0.604313026390E-01 A.U. after    9 cycles
 SCF Done:  E(RPM6) = -0.604313578975E-01 A.U. after    8 cycles
 SCF Done:  E(RPM6) = -0.604314009219E-01 A.U. after    8 cycles
 SCF Done:  E(RPM6) = -0.604314176080E-01 A.U. after    8 cycles
 Optimization completed.
    -- Stationary point found.

                         Standard orientation:
 ---------------------------------------------------------------------
 Center     Atomic      Atomic             Coordinates (Angstroms)
 Number     Number       Type             X           Y           Z
 ---------------------------------------------------------------------
      1          6           0        1.642402    0.957711   -0.000744
      2          1           0        1.644109    1.604175    0.881790
      3          1           0        1.644160    1.602727   -0.884338
      4          1           0        2.586666    0.404388   -0.000260
      5          6           0        0.431767   -0.001555    0.000000
      6          6           0       -0.862956    0.856148   -0.000468
      7          1           0       -0.850932    1.524394   -0.883329
      8          1           0       -0.850936    1.525319    0.881692
      9          6           0       -2.157493    0.048047   -0.000041
     10          1           0       -2.232443   -0.595499    0.883877
     11          1           0       -3.031451    0.708938   -0.000293
     12          1           0       -2.232541   -0.596294   -0.883369
     13          6           0        0.494640   -0.887408   -1.258080
     14          1           0       -0.325599   -1.612071   -1.277539
     15          1           0        0.426659   -0.289725   -2.171997
     16          1           0        1.430763   -1.452286   -1.301758
     17          6           0        0.494818   -0.885689    1.259280
     18          1           0        1.430711   -1.450918    1.303321
     19          1           0        0.427505   -0.286711    2.172400
     20          1           0       -0.325737   -1.609958    1.280117
 ---------------------------------------------------------------------

 The electronic state is 1-A.
 Alpha  occ. eigenvalues --   -1.07267  -0.95307  -0.88392  -0.88255  -0.79240
 Alpha  occ. eigenvalues --   -0.66626  -0.57055  -0.56580  -0.54150  -0.52534
 Alpha  occ. eigenvalues --   -0.49593  -0.47750  -0.47302  -0.46055  -0.45901
 Alpha  occ. eigenvalues --   -0.43564  -0.41346  -0.40924  -0.40165
 Alpha virt. eigenvalues --    0.15472   0.16172   0.16352   0.18154   0.18412
 Alpha virt. eigenvalues --    0.21404   0.22199   0.22401   0.22428   0.22681
 Alpha virt. eigenvalues --    0.22739   0.22827   0.22881   0.23364   0.24760

 Mulliken atomic charges:
              1
     1  C   -0.538624
     2  H    0.152136
     3  H    0.152138
     4  H    0.154238
     5  C    0.271674
     6  C   -0.295123
     7  H    0.132264
     8  H    0.132264
     9  C   -0.446119
    10  H    0.144640
    11  H    0.139207
    12  H    0.144642
    13  C   -0.528065
    14  H    0.153673
    15  H    0.151586
    16  H    0.151139
    17  C   -0.528069
    18  H    0.151140
    19  H    0.151585
    20  H    0.153673
 Sum of Mulliken atomic charges =   0.00000

 Dipole moment (field-independent basis, Debye):
    X=              0.0114    Y=             -0.0378    Z=              0.0000  Tot=              0.0395
 N-N= 1.715276951896D+02 E-N=-2.637482357205D+02  KE=-5.646789584033D+01
 Leave Link  601 at Mon Sep 14 19:14:15 2015, MaxMem=  402653184 cpu:       0.1
 (Enter /share/apps/g09/l9999.exe)
 1\1\GINC-COMPUTE-0-2\FOpt\RPM6\ZDO\C6H14\HETANJIN\14-Sep-2015\0\\#p PM
 6 opt\\using PM6 to do opt and freq calc.\\0,1\C,1.5587083748,0.748714
 5048,-0.800037568\H,1.7078190454,1.7325175869,-0.3454124947\H,1.352149
 5285,0.9025582258,-1.8632652808\H,2.5086234188,0.2099417258,-0.7280213
 567\C,0.4194363767,-0.0306854083,-0.1069122235\C,-0.887643111,0.795418
 1487,-0.2520272251\H,-1.0851007185,0.9695231648,-1.3275913293\H,-0.729
 5843816,1.7984994899,0.1895456903\C,-2.1161621705,0.153666265,0.386523

 Normal termination of Gaussian 09 at Mon Sep 14 19:14:15 2015.
