 Gaussian 09, Revision A.01,
 Gaussian 09:  EM64L-G09RevA.01  8-May-2009

 -----------------------------------------
 #p B3LYP/6-31G(d) opt=tight int=ultrafine
 -----------------------------------------

 ---------------------------------------------
 using B3LYP/6-31G(d) to do opt and freq calc.
 ---------------------------------------------
 Symbolic Z-matrix:
 Charge =  0 Multiplicity = 1

 SCF Done:  E(RB3LYP) =  -237.081346250     A.U. after   11 cycles
 SCF Done:  E(RB3LYP) =  -237.082206485     A.U. after   12 cycles
 SCF Done:  E(RB3LYP) =  -237.082415697     A.U. after    9 cycles
 SCF Done:  E(RB3LYP) =  -237.082451635     A.U. after    9 cycles
 SCF Done:  E(RB3LYP) =  -237.082465610     A.U. after    9 cycles
 SCF Done:  E(RB3LYP) =  -237.082467448     A.U. after    9 cycles
 SCF Done:  E(RB3LYP) =  -237.082467504     A.U. after    6 cycles
 SCF Done:  E(RB3LYP) =  -237.082467510     A.U. after    5 cycles
 Optimization completed.
    -- Stationary point found.

                         Standard orientation:
 ---------------------------------------------------------------------
 Center     Atomic      Atomic             Coordinates (Angstroms)
 Number     Number       Type             X           Y           Z
 ---------------------------------------------------------------------
      1          6           0        1.004216   -1.198026    0.847021
      2          1           0        0.256047   -1.987882    0.975500
      3          1           0        1.032581   -0.609166    1.771711
      4          1           0        1.980868   -1.685204    0.741706
      5          6           0        0.711208   -0.314132   -0.376646
      6          1           0        0.753296   -0.963594   -1.264811
      7          6           0       -0.711207    0.314132   -0.376648
      8          1           0       -0.753293    0.963592   -1.264814
      9          6           0       -1.810486   -0.747048   -0.546061
     10          1           0       -1.875076   -1.408086    0.326665
     11          1           0       -2.792479   -0.274811   -0.669139
     12          1           0       -1.628765   -1.374173   -1.427499
     13          6           0        1.810488    0.747047   -0.546059
     14          1           0        1.628767    1.374170   -1.427499
     15          1           0        1.875075    1.408087    0.326666
     16          1           0        2.792480    0.274810   -0.669135
     17          6           0       -1.004217    1.198028    0.847017
     18          1           0       -1.032584    0.609169    1.771708
     19          1           0       -0.256049    1.987884    0.975496
     20          1           0       -1.980869    1.685205    0.741699
 ---------------------------------------------------------------------

 The electronic state is 1-A.
 Alpha  occ. eigenvalues --  -10.18215 -10.18196 -10.16787 -10.16787 -10.16759
 Alpha  occ. eigenvalues --  -10.16759  -0.81058  -0.74039  -0.67985  -0.67216
 Alpha  occ. eigenvalues --   -0.60656  -0.52999  -0.46456  -0.43955  -0.43683
 Alpha  occ. eigenvalues --   -0.40203  -0.39330  -0.38306  -0.36949  -0.36924
 Alpha  occ. eigenvalues --   -0.34211  -0.34088  -0.30884  -0.30880  -0.30102
 Alpha virt. eigenvalues --    0.07885   0.12318   0.12344   0.13683   0.14547
 Alpha virt. eigenvalues --    0.14771   0.16635   0.17189   0.18141   0.18839
 Alpha virt. eigenvalues --    0.20281   0.20944   0.21701   0.23565   0.23687

 Mulliken atomic charges:
              1
     1  C   -0.451866
     2  H    0.142846
     3  H    0.142306
     4  H    0.139198
     5  C   -0.058798
     6  H    0.116848
     7  C   -0.058798
     8  H    0.116848
     9  C   -0.448838
    10  H    0.141487
    11  H    0.138820
    12  H    0.137997
    13  C   -0.448838
    14  H    0.137997
    15  H    0.141487
    16  H    0.138820
    17  C   -0.451866
    18  H    0.142306
    19  H    0.142846
    20  H    0.139198
 Sum of Mulliken atomic charges =   0.00000

 Dipole moment (field-independent basis, Debye):
    X=              0.0000    Y=              0.0000    Z=             -0.0821  Tot=              0.0821
 Quadrupole moment (field-independent basis, Debye-Ang):
   XX=            -41.7168   YY=            -41.7053   ZZ=            -41.4844
   XY=             -0.3068   XZ=              0.0000   YZ=              0.0000

 Normal termination of Gaussian 09 at Fri Sep 18 13:33:22 2015.
