 Gaussian 09, Revision A.01,
 Gaussian 09:  EM64L-G09RevA.01  8-May-2009

 ----------
 #p PM6 opt
 ----------

 ----------------------------------
 using PM6 to do opt and freq calc.
 ----------------------------------
 Symbolic Z-matrix:
 Charge =  0 Multiplicity = 1

 SCF Done:  E(RPM6) = -0.538042191497E-01 A.U. after   13 cycles
 SCF Done:  E(RPM6) = -0.560820132196E-01 A.U. after   11 cycles
 SCF Done:  E(RPM6) = -0.562575702444E-01 A.U. after   11 cycles
 SCF Done:  E(RPM6) = -0.563039090042E-01 A.U. after   10 cycles
 SCF Done:  E(RPM6) = -0.563273567086E-01 A.U. after   10 cycles
 SCF Done:  E(RPM6) = -0.563378810387E-01 A.U. after   10 cycles
 SCF Done:  E(RPM6) = -0.563413266367E-01 A.U. after   10 cycles
 SCF Done:  E(RPM6) = -0.563428238798E-01 A.U. after    9 cycles
 SCF Done:  E(RPM6) = -0.563431565822E-01 A.U. after    9 cycles
 SCF Done:  E(RPM6) = -0.563432247917E-01 A.U. after    8 cycles
 Optimization completed.
    -- Stationary point found.

                         Standard orientation:
 ---------------------------------------------------------------------
 Center     Atomic      Atomic             Coordinates (Angstroms)
 Number     Number       Type             X           Y           Z
 ---------------------------------------------------------------------
      1          6           0       -2.586150    0.857128   -0.258401
      2          1           0       -2.731262    0.719780   -1.335794
      3          1           0       -1.908252    1.708567   -0.127865
      4          1           0       -3.553523    1.136642    0.172568
      5          6           0       -2.031483   -0.405334    0.398161
      6          1           0       -1.937288   -0.247862    1.490506
      7          1           0       -2.758654   -1.232693    0.276286
      8          6           0       -0.677987   -0.837078   -0.185128
      9          1           0       -0.735785   -0.856034   -1.290449
     10          1           0       -0.465231   -1.879449    0.122402
     11          6           0        0.471381    0.076121    0.261368
     12          1           0        0.528075    0.098181    1.366327
     13          1           0        0.264243    1.118640   -0.048097
     14          6           0        1.815457   -0.383183   -0.321062
     15          1           0        1.759551   -0.401058   -1.427019
     16          1           0        2.022983   -1.426253   -0.012152
     17          6           0        2.962460    0.522732    0.121898
     18          1           0        3.069488    0.533727    1.212467
     19          1           0        3.917028    0.187482   -0.298395
     20          1           0        2.806562    1.558023   -0.201798
 ---------------------------------------------------------------------

 The electronic state is 1-A.
 Alpha  occ. eigenvalues --   -1.05608  -1.00007  -0.90946  -0.82319  -0.74682
 Alpha  occ. eigenvalues --   -0.72445  -0.59227  -0.56599  -0.54558  -0.51884
 Alpha  occ. eigenvalues --   -0.51560  -0.48743  -0.46901  -0.45624  -0.44065
 Alpha  occ. eigenvalues --   -0.42743  -0.41696  -0.40823  -0.40364
 Alpha virt. eigenvalues --    0.15266   0.15857   0.16863   0.17536   0.18484
 Alpha virt. eigenvalues --    0.20532   0.21137   0.21651   0.22087   0.22232
 Alpha virt. eigenvalues --    0.22768   0.22980   0.23596   0.24092   0.24463

 Mulliken atomic charges:
              1
     1  C   -0.459663
     2  H    0.145667
     3  H    0.147256
     4  H    0.141569
     5  C   -0.220344
     6  H    0.126546
     7  H    0.122451
     8  C   -0.266597
     9  H    0.132726
    10  H    0.126953
    11  C   -0.259830
    12  H    0.130618
    13  H    0.133166
    14  C   -0.224037
    15  H    0.125763
    16  H    0.125290
    17  C   -0.463672
    18  H    0.146291
    19  H    0.143566
    20  H    0.146281
 Sum of Mulliken atomic charges =   0.00000

 Dipole moment (field-independent basis, Debye):
    X=              0.0069    Y=              0.0669    Z=             -0.0067  Tot=              0.0676
 N-N= 1.627610905321D+02 E-N=-2.465295667642D+02  KE=-5.608938490824D+01
 Leave Link  601 at Mon Sep 14 19:14:00 2015, MaxMem=  402653184 cpu:       0.0
 (Enter /share/apps/g09/l9999.exe)
 1\1\GINC-COMPUTE-0-12\FOpt\RPM6\ZDO\C6H14\HETANJIN\14-Sep-2015\0\\#p P
 M6 opt\\using PM6 to do opt and freq calc.\\0,1\C,1.8831965002,1.84033
 64708,0.8554668286\H,2.0482688408,1.4303893455,1.8581590908\H,0.979413
 5956,2.4588301239,0.9021264976\H,2.7247864965,2.5028622867,0.626424416
 \C,1.7501282503,0.7331794052,-0.18810148\H,1.6275907139,1.1805693582,-
 1.1939411645\H,2.6935831745,0.1533431314,-0.2309612639\C,0.5853238489,
 -0.2247590647,0.1020127892\H,0.6306953713,-0.5606884157,1.1558282312\H

 Normal termination of Gaussian 09 at Mon Sep 14 19:14:03 2015.
