 Gaussian 09, Revision A.01,
 Gaussian 09:  EM64L-G09RevA.01  8-May-2009

 ----------
 #p PM6 opt
 ----------

 ----------------------------------
 using PM6 to do opt and freq calc.
 ----------------------------------
 Symbolic Z-matrix:
 Charge =  0 Multiplicity = 1

 SCF Done:  E(RPM6) = -0.569741031351E-01 A.U. after   13 cycles
 SCF Done:  E(RPM6) = -0.601448693978E-01 A.U. after   12 cycles
 SCF Done:  E(RPM6) = -0.603678013970E-01 A.U. after   11 cycles
 SCF Done:  E(RPM6) = -0.604284389919E-01 A.U. after   11 cycles
 SCF Done:  E(RPM6) = -0.604309966727E-01 A.U. after    9 cycles
 SCF Done:  E(RPM6) = -0.604313693865E-01 A.U. after   16 cycles
 Optimization completed.
    -- Stationary point found.

                         Standard orientation:
 ---------------------------------------------------------------------
 Center     Atomic      Atomic             Coordinates (Angstroms)
 Number     Number       Type             X           Y           Z
 ---------------------------------------------------------------------
      1          6           0       -0.494136   -0.886527    1.258610
      2          1           0       -0.425022   -0.288260    2.172074
      3          1           0        0.325625   -1.611732    1.277871
      4          1           0       -1.430636   -1.450743    1.303325
      5          6           0       -0.431711   -0.001568    0.000000
      6          6           0        0.863073    0.856163   -0.000713
      7          1           0        0.851102    1.525618    0.881144
      8          1           0        0.851042    1.524220   -0.883638
      9          6           0        2.157415    0.047846   -0.000049
     10          1           0        2.231242   -0.598543   -0.882016
     11          1           0        3.031528    0.708536   -0.002879
     12          1           0        2.233325   -0.593703    0.885250
     13          6           0       -0.495557   -0.886387   -1.258670
     14          1           0       -0.429358   -0.287851   -2.172173
     15          1           0        0.325297   -1.610319   -1.279873
     16          1           0       -1.431295   -1.452012   -1.301440
     17          6           0       -1.642194    0.957722    0.000744
     18          1           0       -2.586505    0.404464    0.000722
     19          1           0       -1.643612    1.603000    0.884161
     20          1           0       -1.644073    1.603833   -0.882062
 ---------------------------------------------------------------------

 The electronic state is 1-A.
 Alpha  occ. eigenvalues --   -1.07272  -0.95309  -0.88392  -0.88256  -0.79240
 Alpha  occ. eigenvalues --   -0.66627  -0.57057  -0.56580  -0.54151  -0.52536
 Alpha  occ. eigenvalues --   -0.49594  -0.47749  -0.47302  -0.46054  -0.45901
 Alpha  occ. eigenvalues --   -0.43563  -0.41346  -0.40924  -0.40164
 Alpha virt. eigenvalues --    0.15473   0.16172   0.16353   0.18155   0.18414
 Alpha virt. eigenvalues --    0.21404   0.22199   0.22400   0.22428   0.22681
 Alpha virt. eigenvalues --    0.22739   0.22827   0.22881   0.23364   0.24762

 Mulliken atomic charges:
              1
     1  C   -0.528059
     2  H    0.151595
     3  H    0.153681
     4  H    0.151141
     5  C    0.271653
     6  C   -0.295114
     7  H    0.132255
     8  H    0.132255
     9  C   -0.446121
    10  H    0.144653
    11  H    0.139206
    12  H    0.144636
    13  C   -0.528075
    14  H    0.151592
    15  H    0.153668
    16  H    0.151151
    17  C   -0.538640
    18  H    0.154239
    19  H    0.152145
    20  H    0.152140
 Sum of Mulliken atomic charges =   0.00000

 Dipole moment (field-independent basis, Debye):
    X=             -0.0116    Y=             -0.0380    Z=              0.0001  Tot=              0.0397
 N-N= 1.715310422802D+02 E-N=-2.637545094624D+02  KE=-5.646809809412D+01
 Leave Link  601 at Mon Sep 14 19:13:49 2015, MaxMem=  402653184 cpu:       0.0
 (Enter /share/apps/g09/l9999.exe)
 1\1\GINC-COMPUTE-0-2\FOpt\RPM6\ZDO\C6H14\HETANJIN\14-Sep-2015\0\\#p PM
 6 opt\\using PM6 to do opt and freq calc.\\0,1\C,0.7243579757,-0.24845
 72514,-1.4247124013\H,0.8070118376,0.7071029585,-1.9512001941\H,-0.062
 0520699,-0.8285652431,-1.9180041445\H,1.6661271368,-0.7869621022,-1.56
 7738324\C,0.4169107811,-0.0428669111,0.070064141\C,-0.8759301296,0.798
 5792423,0.250897808\H,-0.7208138745,1.7973207818,-0.2012509142\H,-1.03
 77717341,0.9810253617,1.3309547613\C,-2.1305445114,0.1667779628,-0.345

 Normal termination of Gaussian 09 at Mon Sep 14 19:13:51 2015.
