 Gaussian 09, Revision D.01,
 Gaussian 09:  ES64L-G09RevD.01 24-Apr-2013

 ----------------------------------------------
 #p B3LYP/6-31G(d) opt=tight int=ultrafine freq
 ----------------------------------------------

 ---------------------------------------------
 using B3LYP/6-31G(d) to do opt and freq calc.
 ---------------------------------------------
 Symbolic Z-matrix:
 Charge =  0 Multiplicity = 2

 SCF Done:  E(UB3LYP) =  -236.401108579     A.U. after   14 cycles
 SCF Done:  E(UB3LYP) =  -236.409078283     A.U. after   14 cycles
 SCF Done:  E(UB3LYP) =  -236.410926300     A.U. after   14 cycles
 SCF Done:  E(UB3LYP) =  -236.411069397     A.U. after   11 cycles
 SCF Done:  E(UB3LYP) =  -236.411115640     A.U. after   11 cycles
 SCF Done:  E(UB3LYP) =  -236.411130803     A.U. after   10 cycles
 SCF Done:  E(UB3LYP) =  -236.411132988     A.U. after   10 cycles
 SCF Done:  E(UB3LYP) =  -236.411133423     A.U. after    8 cycles
 SCF Done:  E(UB3LYP) =  -236.411133593     A.U. after    7 cycles
 SCF Done:  E(UB3LYP) =  -236.411133632     A.U. after    7 cycles
 SCF Done:  E(UB3LYP) =  -236.411133638     A.U. after    6 cycles
 SCF Done:  E(UB3LYP) =  -236.411133639     A.U. after    5 cycles
 Optimization completed.
    -- Stationary point found.
 Normal termination of Gaussian 09 at Sat Nov  7 02:25:22 2015.

 --------------------------------------------------------------------
 #P Geom=AllCheck Guess=TCheck SCRF=Check GenChk UB3LYP/6-31G(d) Freq
 --------------------------------------------------------------------

 Structure from the checkpoint file:  "/state/partition1/Gau-9157.chk"
 ---------------------------------------------
 using B3LYP/6-31G(d) to do opt and freq calc.
 ---------------------------------------------
 Charge =  0 Multiplicity = 2

                         Standard orientation:
 ---------------------------------------------------------------------
 Center     Atomic      Atomic             Coordinates (Angstroms)
 Number     Number       Type             X           Y           Z
 ---------------------------------------------------------------------
      1          6           0       -1.638634   -0.784498   -0.553069
      2          1           0       -1.600627   -1.842943   -0.270596
      3          1           0       -1.628778   -0.725601   -1.649790
      4          1           0       -2.592069   -0.375437   -0.200150
      5          6           0       -0.438499   -0.001621    0.049118
      6          6           0        0.869132   -0.647848   -0.488022
      7          1           0        0.834024   -0.640552   -1.586695
      8          1           0        0.870104   -1.706599   -0.191686
      9          6           0        2.175141    0.001296   -0.016756
     10          1           0        2.231785    0.030382    1.077433
     11          1           0        3.040562   -0.562673   -0.383383
     12          1           0        2.276168    1.029126   -0.382298
     13          6           0       -0.549095    1.474109   -0.387602
     14          1           0        0.249712    2.086086    0.043670
     15          1           0       -0.496263    1.565077   -1.479585
     16          1           0       -1.505425    1.901999   -0.063131
     17          6           0       -0.494825   -0.103397    1.546597
     18          1           0       -1.040360    0.627738    2.136854
     19          1           0       -0.178148   -1.014849    2.047762
 ---------------------------------------------------------------------

 SCF Done:  E(UB3LYP) =  -236.411133639     A.U. after    1 cycles

 The electronic state is 2-A.
 Alpha  occ. eigenvalues --  -10.19556 -10.18164 -10.17652 -10.17177 -10.16945
 Alpha  occ. eigenvalues --  -10.16806  -0.81947  -0.73065  -0.67972  -0.66957
 Alpha  occ. eigenvalues --   -0.61697  -0.52416  -0.45562  -0.44990  -0.43239
 Alpha  occ. eigenvalues --   -0.41216  -0.39855  -0.37774  -0.37487  -0.35604
 Alpha  occ. eigenvalues --   -0.34395  -0.32564  -0.32018  -0.30844  -0.19616
 Alpha virt. eigenvalues --    0.08297   0.12906   0.13587   0.13988   0.14472
 Alpha virt. eigenvalues --    0.15402   0.16747   0.17525   0.18471   0.19023
 Alpha virt. eigenvalues --    0.20495   0.21606   0.22665   0.22833   0.24607

  Beta  occ. eigenvalues --  -10.19638 -10.17612 -10.17043 -10.16922 -10.16795
  Beta  occ. eigenvalues --  -10.16786  -0.81394  -0.72861  -0.67812  -0.64478
  Beta  occ. eigenvalues --   -0.61333  -0.51832  -0.45271  -0.44675  -0.42917
  Beta  occ. eigenvalues --   -0.40891  -0.39510  -0.37664  -0.37165  -0.35509
  Beta  occ. eigenvalues --   -0.34196  -0.31937  -0.31618  -0.30704
  Beta virt. eigenvalues --   -0.03842   0.08448   0.13167   0.13717   0.14309
  Beta virt. eigenvalues --    0.15038   0.15663   0.16827   0.17782   0.18578
  Beta virt. eigenvalues --    0.19259   0.20979   0.21706   0.22928   0.23014

 Mulliken charges and spin densities:
               1          2
     1  C   -0.437226   0.039786
     2  H    0.139307  -0.001148
     3  H    0.137392   0.016784
     4  H    0.140017  -0.000702
     5  C    0.106691  -0.066320
     6  C   -0.248467   0.015241
     7  H    0.125473  -0.000043
     8  H    0.125900  -0.000959
     9  C   -0.448390   0.006360
    10  H    0.148604   0.000994
    11  H    0.139625  -0.000111
    12  H    0.144484   0.000210
    13  C   -0.453807   0.007783
    14  H    0.148320   0.000776
    15  H    0.136910   0.000194
    16  H    0.138206  -0.000623
    17  C   -0.314436   1.082540
    18  H    0.136653  -0.050714
    19  H    0.134742  -0.050048
 Sum of Mulliken charges =   0.00000   1.00000

 Dipole moment (field-independent basis, Debye):
    X=             -0.1206    Y=             -0.0693    Z=             -0.1359  Tot=              0.1945
 Quadrupole moment (field-independent basis, Debye-Ang):
   XX=            -41.3119   YY=            -40.5442   ZZ=            -40.7085
   XY=             -0.6266   XZ=             -0.4246   YZ=             -0.2085

  Exact polarizability:  65.229  -1.716  60.839  -0.314  -0.043  62.377
 Approx polarizability:  81.059  -2.933  82.989  -0.649  -0.172  87.092

                      1                      2                      3
                      A                      A                      A
 Frequencies --    110.6791               130.5655               214.9244
 Red. masses --      1.7785                 1.0189                 1.1843
 Frc consts  --      0.0128                 0.0102                 0.0322
 IR Inten    --      0.0163                 0.8736                 0.0584

                      4                      5                      6
                      A                      A                      A
 Frequencies --    238.4474               257.9369               282.5536
 Red. masses --      1.4461                 1.3611                 1.1082
 Frc consts  --      0.0484                 0.0534                 0.0521
 IR Inten    --      0.1084                 0.0013                 0.0139

                      7                      8                      9
                      A                      A                      A
 Frequencies --    310.8978               347.2082               404.3265
 Red. masses --      1.7770                 2.1566                 2.1639
 Frc consts  --      0.1012                 0.1532                 0.2084
 IR Inten    --      2.7810                 0.6474                 0.0900

                     10                     11                     12
                      A                      A                      A
 Frequencies --    409.2315               459.1557               553.7160
 Red. masses --      1.9605                 1.9669                 2.2493
 Frc consts  --      0.1934                 0.2443                 0.4063
 IR Inten    --      1.8162                10.4802                23.4077

                     13                     14                     15
                      A                      A                      A
 Frequencies --    721.5919               795.9762               875.9074
 Red. masses --      3.0985                 1.1797                 1.9860
 Frc consts  --      0.9506                 0.4404                 0.8977
 IR Inten    --      0.4924                 2.3295                 0.0598

                     16                     17                     18
                      A                      A                      A
 Frequencies --    937.1568               951.4380               982.4012
 Red. masses --      1.7760                 1.5953                 1.4632
 Frc consts  --      0.9190                 0.8508                 0.8320
 IR Inten    --      0.1995                 0.7178                 0.3842

                     19                     20                     21
                      A                      A                      A
 Frequencies --   1017.1409              1026.2372              1070.9447
 Red. masses --      1.2648                 2.0474                 1.4955
 Frc consts  --      0.7710                 1.2704                 1.0106
 IR Inten    --      2.3750                 2.0664                 1.3429

                     22                     23                     24
                      A                      A                      A
 Frequencies --   1103.9752              1181.4465              1261.0198
 Red. masses --      1.7031                 2.2370                 1.9956
 Frc consts  --      1.2229                 1.8397                 1.8696
 IR Inten    --      1.1628                 7.3643                 1.3031

                     25                     26                     27
                      A                      A                      A
 Frequencies --   1278.5143              1348.5326              1380.4626
 Red. masses --      2.7786                 1.3823                 1.4076
 Frc consts  --      2.6760                 1.4811                 1.5804
 IR Inten    --      1.4637                 0.8389                 1.5356

                     28                     29                     30
                      A                      A                      A
 Frequencies --   1418.8148              1438.0890              1439.3373
 Red. masses --      1.2152                 1.2453                 1.2177
 Frc consts  --      1.4413                 1.5174                 1.4864
 IR Inten    --      2.0713                 5.1696                 2.0359

                     31                     32                     33
                      A                      A                      A
 Frequencies --   1485.2109              1508.9943              1515.5266
 Red. masses --      1.1734                 1.0614                 1.0470
 Frc consts  --      1.5250                 1.4240                 1.4169
 IR Inten    --      1.0044                 0.3091                 0.4815

                     34                     35                     36
                      A                      A                      A
 Frequencies --   1522.2784              1527.6913              1530.8352
 Red. masses --      1.0600                 1.0452                 1.0517
 Frc consts  --      1.4473                 1.4372                 1.4521
 IR Inten    --      2.3400                 4.9113                 5.3617

                     37                     38                     39
                      A                      A                      A
 Frequencies --   1538.4202              1545.4738              3021.5291
 Red. masses --      1.0654                 1.0587                 1.0582
 Frc consts  --      1.4857                 1.4899                 5.6918
 IR Inten    --      6.2481                 2.7788                24.3201

                     40                     41                     42
                      A                      A                      A
 Frequencies --   3032.4210              3043.1638              3049.4032
 Red. masses --      1.0373                 1.0366                 1.0359
 Frc consts  --      5.6199                 5.6560                 5.6755
 IR Inten    --     39.9214                25.4325                21.0473

                     43                     44                     45
                      A                      A                      A
 Frequencies --   3054.5885              3098.5201              3104.5842
 Red. masses --      1.1027                 1.1001                 1.1017
 Frc consts  --      6.0618                 6.2229                 6.2565
 IR Inten    --     22.3966                12.9463                42.1490

                     46                     47                     48
                      A                      A                      A
 Frequencies --   3111.6779              3115.1299              3116.7415
 Red. masses --      1.1022                 1.1027                 1.1023
 Frc consts  --      6.2876                 6.3045                 6.3087
 IR Inten    --     21.9632                51.5206                52.4057

                     49                     50                     51
                      A                      A                      A
 Frequencies --   3123.8384              3150.1629              3247.6293
 Red. masses --      1.1007                 1.0509                 1.1180
 Frc consts  --      6.3281                 6.1444                 6.9473
 IR Inten    --     30.1749                18.1918                19.5525

 - Thermochemistry -
 -------------------
 Temperature   298.150 Kelvin.  Pressure   1.00000 Atm.
 Atom     1 has atomic number  6 and mass  12.00000

 Molecular mass:    85.10173 amu.
 Principal axes and moments of inertia in atomic units:
                           1         2         3
     Eigenvalues --   408.45831 709.50851 725.25168
           X            0.99996   0.00253   0.00850
           Y           -0.00232   0.99967  -0.02571
           Z           -0.00856   0.02569   0.99963
 This molecule is an asymmetric top.
 Rotational symmetry number  1.
 Rotational temperatures (Kelvin)      0.21205     0.12208     0.11943
 Rotational constants (GHZ):           4.41842     2.54365     2.48843
 Zero-point vibrational energy     456928.3 (Joules/Mol)
                                  109.20849 (Kcal/Mol)
 Warning -- explicit consideration of  12 degrees of freedom as
           vibrations may cause significant error
 Vibrational temperatures:    159.24   187.85   309.23   343.07   371.11
          (Kelvin)            406.53   447.31   499.55   581.73   588.79
                              660.62   796.67  1038.21  1145.23  1260.23
                             1348.36  1368.91  1413.45  1463.44  1476.52
                             1540.85  1588.37  1699.84  1814.32  1839.49
                             1940.24  1986.18  2041.36  2069.09  2070.88
                             2136.88  2171.10  2180.50  2190.22  2198.00
                             2202.53  2213.44  2223.59  4347.30  4362.97
                             4378.43  4387.41  4394.87  4458.07  4466.80
                             4477.00  4481.97  4484.29  4494.50  4532.38
                             4672.61

 Zero-point correction=                           0.174035 (Hartree/Particle)
 Thermal correction to Energy=                    0.182648
 Thermal correction to Enthalpy=                  0.183593
 Thermal correction to Gibbs Free Energy=         0.141807
 Sum of electronic and zero-point Energies=           -236.237099
 Sum of electronic and thermal Energies=              -236.228485
 Sum of electronic and thermal Enthalpies=            -236.227541
 Sum of electronic and thermal Free Energies=         -236.269327

                     E (Thermal)             CV                S
                      KCal/Mol        Cal/Mol-Kelvin    Cal/Mol-Kelvin
 Total                  114.614             31.675             87.946
 Electronic               0.000              0.000              1.377
 Translational            0.889              2.981             39.237
 Rotational               0.889              2.981             26.844
 Vibrational            112.836             25.714             20.487
 Vibration     1          0.607              1.941              3.257
 Vibration     2          0.612              1.923              2.938
 Vibration     3          0.645              1.818              2.001
 Vibration     4          0.656              1.782              1.814
 Vibration     5          0.667              1.749              1.676
 Vibration     6          0.682              1.706              1.518
 Vibration     7          0.700              1.653              1.358
 Vibration     8          0.725              1.581              1.179
 Vibration     9          0.770              1.461              0.947
 Vibration    10          0.774              1.450              0.929
 Vibration    11          0.817              1.341              0.769
 Vibration    12          0.909              1.132              0.537

 Optimization completed.
    -- Stationary point found.
 Normal termination of Gaussian 09 at Sat Nov  7 02:33:17 2015.
