 Gaussian 09, Revision A.01,
 Gaussian 09:  EM64L-G09RevA.01  8-May-2009

 ----------
 #p PM6 opt
 ----------

 ----------------------------------
 using PM6 to do opt and freq calc.
 ----------------------------------
 Symbolic Z-matrix:
 Charge =  0 Multiplicity = 1

 SCF Done:  E(RPM6) = -0.541001824400E-01 A.U. after   13 cycles
 SCF Done:  E(RPM6) = -0.569592053140E-01 A.U. after   12 cycles
 SCF Done:  E(RPM6) = -0.571319072459E-01 A.U. after   11 cycles
 SCF Done:  E(RPM6) = -0.571790937027E-01 A.U. after   10 cycles
 SCF Done:  E(RPM6) = -0.571827557706E-01 A.U. after   10 cycles
 SCF Done:  E(RPM6) = -0.571841084552E-01 A.U. after   10 cycles
 SCF Done:  E(RPM6) = -0.571845059527E-01 A.U. after   10 cycles
 SCF Done:  E(RPM6) = -0.571847792720E-01 A.U. after    9 cycles
 SCF Done:  E(RPM6) = -0.571848672442E-01 A.U. after    9 cycles
 SCF Done:  E(RPM6) = -0.571849078054E-01 A.U. after   17 cycles
 SCF Done:  E(RPM6) = -0.571849154544E-01 A.U. after    7 cycles
 Optimization completed.
    -- Stationary point found.

                         Standard orientation:
 ---------------------------------------------------------------------
 Center     Atomic      Atomic             Coordinates (Angstroms)
 Number     Number       Type             X           Y           Z
 ---------------------------------------------------------------------
      1          6           0       -1.600812   -1.262176   -0.285792
      2          1           0       -1.294303   -2.169778    0.244266
      3          1           0       -1.156234   -1.301634   -1.286167
      4          1           0       -2.687804   -1.301311   -0.410613
      5          6           0       -1.174137   -0.000002    0.474342
      6          1           0       -1.706705   -0.000012    1.461125
      7          6           0        0.338707   -0.000057    0.782709
      8          1           0        0.578223   -0.882219    1.407439
      9          1           0        0.578268    0.882002    1.407562
     10          6           0        1.235219    0.000003   -0.462205
     11          1           0        1.007198    0.883830   -1.089441
     12          1           0        1.007213   -0.883781   -1.089510
     13          6           0        2.717250    0.000007   -0.091034
     14          1           0        2.985195   -0.882760    0.500153
     15          1           0        3.349015   -0.000205   -0.985963
     16          1           0        2.985272    0.882989    0.499797
     17          6           0       -1.600760    1.262221   -0.285741
     18          1           0       -1.293955    2.169791    0.244206
     19          1           0       -1.156415    1.301566   -1.286225
     20          1           0       -2.687775    1.301549   -0.410305
 ---------------------------------------------------------------------

 The electronic state is 1-A.
 Alpha  occ. eigenvalues --   -1.06324  -0.98509  -0.88347  -0.86407  -0.77239
 Alpha  occ. eigenvalues --   -0.68500  -0.57715  -0.57417  -0.54812  -0.51713
 Alpha  occ. eigenvalues --   -0.50828  -0.48174  -0.47055  -0.46125  -0.44889
 Alpha  occ. eigenvalues --   -0.43232  -0.41358  -0.40567  -0.40050
 Alpha virt. eigenvalues --    0.15474   0.16218   0.16439   0.17789   0.18410
 Alpha virt. eigenvalues --    0.20901   0.21792   0.22204   0.22240   0.22349
 Alpha virt. eigenvalues --    0.22506   0.22552   0.23470   0.23588   0.24640

 Mulliken atomic charges:
              1
     1  C   -0.498393
     2  H    0.148104
     3  H    0.152011
     4  H    0.146960
     5  C    0.027131
     6  H    0.104437
     7  C   -0.307342
     8  H    0.133293
     9  H    0.133293
    10  C   -0.205066
    11  H    0.125479
    12  H    0.125477
    13  C   -0.469333
    14  H    0.145934
    15  H    0.143400
    16  H    0.145932
    17  C   -0.498392
    18  H    0.148106
    19  H    0.152010
    20  H    0.146958
 Sum of Mulliken atomic charges =   0.00000

 Dipole moment (field-independent basis, Debye):
    X=              0.0200    Y=              0.0000    Z=             -0.0373  Tot=              0.0423
 N-N= 1.670781144585D+02 E-N=-2.550411437624D+02  KE=-5.624420118043D+01
 Leave Link  601 at Mon Sep 14 19:14:05 2015, MaxMem=  402653184 cpu:       0.0
 (Enter /share/apps/g09/l9999.exe)
 1\1\GINC-COMPUTE-0-4\FOpt\RPM6\ZDO\C6H14\HETANJIN\14-Sep-2015\0\\#p PM
 6 opt\\using PM6 to do opt and freq calc.\\0,1\C,1.4881401209,1.140766
 6896,0.5963728593\H,1.444586092,0.8318464564,1.6458117001\H,0.83748449
 75,2.0150046678,0.4854125612\H,2.5119860908,1.4682226324,0.3885810922\
 C,1.0690178878,0.0002132717,-0.3397955693\H,1.806982281,-0.8343130663,
 -0.2119527488\C,-0.3173707265,-0.5678104917,0.0331124046\H,-0.27847922
 3,-0.9608324416,1.0674655407\H,-0.532463026,-1.4425904042,-0.610592531

 Normal termination of Gaussian 09 at Mon Sep 14 19:14:08 2015.
