 Gaussian 09, Revision A.01,
 Gaussian 09:  EM64L-G09RevA.01  8-May-2009

 ----------
 #p PM6 opt
 ----------

 ----------------------------------
 using PM6 to do opt and freq calc.
 ----------------------------------
 Symbolic Z-matrix:
 Charge =  0 Multiplicity = 1

 SCF Done:  E(RPM6) = -0.481309021490E-01 A.U. after   12 cycles
 SCF Done:  E(RPM6) = -0.554943900208E-01 A.U. after   11 cycles
 SCF Done:  E(RPM6) = -0.571533702582E-01 A.U. after   14 cycles
 SCF Done:  E(RPM6) = -0.572758068181E-01 A.U. after   10 cycles
 SCF Done:  E(RPM6) = -0.572844735738E-01 A.U. after    8 cycles
 Optimization completed.
    -- Stationary point found.

                         Standard orientation:
 ---------------------------------------------------------------------
 Center     Atomic      Atomic             Coordinates (Angstroms)
 Number     Number       Type             X           Y           Z
 ---------------------------------------------------------------------
      1          6           0        3.190340   -0.209781    0.000001
      2          1           0        3.283836   -0.852248   -0.882993
      3          1           0        3.283839   -0.852240    0.883000
      4          1           0        4.046426    0.474197   -0.000004
      5          6           0        1.870095    0.557934   -0.000001
      6          1           0        1.825355    1.224204    0.883736
      7          1           0        1.825356    1.224203   -0.883738
      8          6           0        0.661417   -0.388503   -0.000001
      9          1           0        0.707881   -1.055043    0.882486
     10          1           0        0.707881   -1.055043   -0.882488
     11          6           0       -0.661417    0.388503    0.000000
     12          1           0       -0.707881    1.055044   -0.882487
     13          1           0       -0.707881    1.055043    0.882487
     14          6           0       -1.870095   -0.557934    0.000000
     15          1           0       -1.825355   -1.224204    0.883737
     16          1           0       -1.825356   -1.224203   -0.883737
     17          6           0       -3.190340    0.209781    0.000000
     18          1           0       -3.283837    0.852244   -0.882996
     19          1           0       -4.046426   -0.474197    0.000000
     20          1           0       -3.283837    0.852243    0.882997
 ---------------------------------------------------------------------

 The electronic state is 1-A.
 Alpha  occ. eigenvalues --   -1.05502  -1.00291  -0.91562  -0.81026  -0.74213
 Alpha  occ. eigenvalues --   -0.73553  -0.60289  -0.55691  -0.54557  -0.53161
 Alpha  occ. eigenvalues --   -0.49945  -0.48425  -0.48409  -0.44929  -0.44321
 Alpha  occ. eigenvalues --   -0.42724  -0.41775  -0.41118  -0.40444
 Alpha virt. eigenvalues --    0.14998   0.15762   0.16571   0.18166   0.18521
 Alpha virt. eigenvalues --    0.20200   0.20870   0.21792   0.22018   0.22086
 Alpha virt. eigenvalues --    0.22583   0.23167   0.23624   0.24001   0.24471

 Mulliken atomic charges:
              1
     1  C   -0.464363
     2  H    0.146470
     3  H    0.146470
     4  H    0.143937
     5  C   -0.220785
     6  H    0.125852
     7  H    0.125852
     8  C   -0.267083
     9  H    0.131825
    10  H    0.131825
    11  C   -0.267083
    12  H    0.131825
    13  H    0.131825
    14  C   -0.220785
    15  H    0.125852
    16  H    0.125852
    17  C   -0.464363
    18  H    0.146470
    19  H    0.143937
    20  H    0.146470
 Sum of Mulliken atomic charges =   0.00000

 Dipole moment (field-independent basis, Debye):
    X=              0.0000    Y=              0.0000    Z=              0.0000  Tot=              0.0000
 N-N= 1.610756898582D+02 E-N=-2.431612131876D+02  KE=-5.606602331522D+01
 Leave Link  601 at Sun Sep 13 11:20:13 2015, MaxMem=  671088640 cpu:       0.0
 (Enter /share/apps/g09/l9999.exe)
 1\1\GINC-COMPUTE-0-14\FOpt\RPM6\ZDO\C6H14\HETANJIN\13-Sep-2015\0\\#p P
 M6 opt\\using PM6 to do opt and freq calc.\\0,1\C,-3.1828003744,-1.151
 0927038,-0.0231381258\H,-2.8472415819,-2.193685165,-0.0629488943\H,-2.
 8472009335,-0.6642927838,-0.9459503804\H,-4.2784678013,-1.1585326434,-
 0.0360746185\C,-2.6499884764,-0.4354627138,1.2163846794\H,-3.038330065
 6,0.6014959461,1.2449494343\H,-3.0383781342,-0.9291770657,2.128693818\
 C,-1.1152724895,-0.4175275606,1.2475323248\H,-0.7280436332,0.074451669

 Normal termination of Gaussian 09 at Sun Sep 13 11:20:15 2015.
