 Gaussian 09, Revision A.01,
 Gaussian 09:  EM64L-G09RevA.01  8-May-2009

 ----------
 #p PM6 opt
 ----------

 ----------------------------------
 using PM6 to do opt and freq calc.
 ----------------------------------
 Symbolic Z-matrix:
 Charge =  0 Multiplicity = 1

 SCF Done:  E(RPM6) = -0.537326232089E-01 A.U. after   12 cycles
 SCF Done:  E(RPM6) = -0.571357491644E-01 A.U. after   15 cycles
 SCF Done:  E(RPM6) = -0.574892676239E-01 A.U. after   10 cycles
 SCF Done:  E(RPM6) = -0.575625419478E-01 A.U. after    9 cycles
 SCF Done:  E(RPM6) = -0.575864954364E-01 A.U. after   10 cycles
 SCF Done:  E(RPM6) = -0.576038762036E-01 A.U. after   15 cycles
 SCF Done:  E(RPM6) = -0.576060713294E-01 A.U. after    8 cycles
 SCF Done:  E(RPM6) = -0.576066696837E-01 A.U. after    8 cycles
 SCF Done:  E(RPM6) = -0.576066831357E-01 A.U. after    8 cycles
 Optimization completed.
    -- Stationary point found.

                         Standard orientation:
 ---------------------------------------------------------------------
 Center     Atomic      Atomic             Coordinates (Angstroms)
 Number     Number       Type             X           Y           Z
 ---------------------------------------------------------------------
      1          6           0       -1.807222    0.709909   -0.569789
      2          1           0       -1.669466    1.281813   -1.492875
      3          1           0       -1.829741    1.424320    0.260426
      4          1           0       -2.793855    0.237423   -0.619078
      5          6           0       -0.700475   -0.337697   -0.384244
      6          1           0       -0.733603   -1.027763   -1.266214
      7          6           0        0.700475    0.337697   -0.384244
      8          1           0        0.733604    1.027763   -1.266214
      9          6           0        0.961932    1.174037    0.873493
     10          1           0        1.033544    0.547278    1.768779
     11          1           0        1.900379    1.731560    0.789089
     12          1           0        0.158818    1.899087    1.043111
     13          6           0       -0.961932   -1.174037    0.873494
     14          1           0       -0.158823   -1.899093    1.043106
     15          1           0       -1.033535   -0.547278    1.768781
     16          1           0       -1.900383   -1.731553    0.789093
     17          6           0        1.807222   -0.709909   -0.569789
     18          1           0        1.829729   -1.424332    0.260417
     19          1           0        1.669476   -1.281800   -1.492885
     20          1           0        2.793857   -0.237426   -0.619059
 ---------------------------------------------------------------------

 The electronic state is 1-A.
 Alpha  occ. eigenvalues --   -1.06873  -0.96316  -0.89120  -0.87490  -0.77840
 Alpha  occ. eigenvalues --   -0.67231  -0.58717  -0.55602  -0.55043  -0.50800
 Alpha  occ. eigenvalues --   -0.49986  -0.48439  -0.47337  -0.47124  -0.44336
 Alpha  occ. eigenvalues --   -0.44155  -0.41172  -0.40672  -0.39711
 Alpha virt. eigenvalues --    0.15490   0.16131   0.16337   0.18177   0.18410
 Alpha virt. eigenvalues --    0.21686   0.21872   0.22303   0.22353   0.22449
 Alpha virt. eigenvalues --    0.22618   0.22701   0.23077   0.23589   0.23938

 Mulliken atomic charges:
              1
     1  C   -0.496856
     2  H    0.145927
     3  H    0.151275
     4  H    0.147925
     5  C   -0.014436
     6  H    0.110347
     7  C   -0.014435
     8  H    0.110347
     9  C   -0.486098
    10  H    0.150655
    11  H    0.143824
    12  H    0.147437
    13  C   -0.486098
    14  H    0.147437
    15  H    0.150655
    16  H    0.143824
    17  C   -0.496857
    18  H    0.151275
    19  H    0.145927
    20  H    0.147925
 Sum of Mulliken atomic charges =   0.00000

 Dipole moment (field-independent basis, Debye):
    X=              0.0000    Y=              0.0000    Z=              0.1083  Tot=              0.1083
 N-N= 1.706563222271D+02 E-N=-2.620996887326D+02  KE=-5.636887591862D+01
 Leave Link  601 at Mon Sep 14 19:14:18 2015, MaxMem=  402653184 cpu:       0.1
 (Enter /share/apps/g09/l9999.exe)
 1\1\GINC-COMPUTE-0-11\FOpt\RPM6\ZDO\C6H14\HETANJIN\14-Sep-2015\0\\#p P
 M6 opt\\using PM6 to do opt and freq calc.\\0,1\C,-1.3818962677,-1.291
 0249518,0.4451533125\H,-0.7355482205,-1.9459767609,1.037952851\H,-1.57
 63041149,-1.7946634508,-0.5081052837\H,-2.3390218549,-1.2091676925,0.9
 708211868\C,-0.7457515732,0.0903036802,0.2352836923\H,-0.5724161787,0.
 5423192793,1.2456281797\C,0.6437361112,-0.0435373464,-0.4504492467\H,1
 .2099931425,-0.8353304482,0.1041457936\C,0.5480927644,-0.4782091824,-1

 Normal termination of Gaussian 09 at Mon Sep 14 19:14:21 2015.
