 Gaussian 09, Revision D.01,
 Gaussian 09:  ES64L-G09RevD.01 24-Apr-2013

 ----------------------------------------------
 #p B3LYP/6-31G(d) opt=tight int=ultrafine freq
 ----------------------------------------------

 ---------------------------------------------
 using B3LYP/6-31G(d) to do opt and freq calc.
 ---------------------------------------------
 Symbolic Z-matrix:
 Charge =  0 Multiplicity = 2

 SCF Done:  E(UB3LYP) =  -236.400522391     A.U. after   14 cycles
 SCF Done:  E(UB3LYP) =  -236.408666768     A.U. after   14 cycles
 SCF Done:  E(UB3LYP) =  -236.410688032     A.U. after   13 cycles
 SCF Done:  E(UB3LYP) =  -236.410857415     A.U. after   11 cycles
 SCF Done:  E(UB3LYP) =  -236.410900642     A.U. after   11 cycles
 SCF Done:  E(UB3LYP) =  -236.410922767     A.U. after   11 cycles
 SCF Done:  E(UB3LYP) =  -236.410930963     A.U. after   10 cycles
 SCF Done:  E(UB3LYP) =  -236.410938960     A.U. after   10 cycles
 SCF Done:  E(UB3LYP) =  -236.410948343     A.U. after   10 cycles
 SCF Done:  E(UB3LYP) =  -236.410960783     A.U. after   11 cycles
 SCF Done:  E(UB3LYP) =  -236.411092204     A.U. after   14 cycles
 SCF Done:  E(UB3LYP) =  -236.411080520     A.U. after   11 cycles
 SCF Done:  E(UB3LYP) =  -236.410976050     A.U. after   12 cycles
 SCF Done:  E(UB3LYP) =  -236.411132626     A.U. after   11 cycles
 SCF Done:  E(UB3LYP) =  -236.411133435     A.U. after    8 cycles
 SCF Done:  E(UB3LYP) =  -236.411133598     A.U. after    8 cycles
 SCF Done:  E(UB3LYP) =  -236.411133634     A.U. after    6 cycles
 SCF Done:  E(UB3LYP) =  -236.411133640     A.U. after    6 cycles
 SCF Done:  E(UB3LYP) =  -236.411133640     A.U. after    4 cycles
 Optimization completed.
    -- Stationary point found.
 Normal termination of Gaussian 09 at Sat Nov  7 02:27:51 2015.

 --------------------------------------------------------------------
 #P Geom=AllCheck Guess=TCheck SCRF=Check GenChk UB3LYP/6-31G(d) Freq
 --------------------------------------------------------------------

 Structure from the checkpoint file:  "/state/partition1/Gau-3900.chk"
 ---------------------------------------------
 using B3LYP/6-31G(d) to do opt and freq calc.
 ---------------------------------------------
 Charge =  0 Multiplicity = 2

                         Standard orientation:
 ---------------------------------------------------------------------
 Center     Atomic      Atomic             Coordinates (Angstroms)
 Number     Number       Type             X           Y           Z
 ---------------------------------------------------------------------
      1          6           0        1.638635   -0.784503   -0.553056
      2          1           0        1.628780   -0.725628   -1.649779
      3          1           0        1.600636   -1.842944   -0.270564
      4          1           0        2.592070   -0.375432   -0.200147
      5          6           0        0.438500   -0.001621    0.049118
      6          6           0       -0.869128   -0.647857   -0.488015
      7          1           0       -0.870098   -1.706603   -0.191663
      8          1           0       -0.834018   -0.640578   -1.586689
      9          6           0       -2.175138    0.001293   -0.016760
     10          1           0       -2.276167    1.029117   -0.382321
     11          1           0       -3.040560   -0.562682   -0.383374
     12          1           0       -2.231778    0.030401    1.077429
     13          6           0        0.494820   -0.103376    1.546597
     14          1           0        1.040334    0.627774    2.136854
     15          1           0        0.178146   -1.014822    2.047777
     16          6           0        0.549093    1.474106   -0.387619
     17          1           0        1.505419    1.902000   -0.063147
     18          1           0        0.496266    1.565059   -1.479604
     19          1           0       -0.249720    2.086083    0.043641
 ---------------------------------------------------------------------

 SCF Done:  E(UB3LYP) =  -236.411133640     A.U. after    1 cycles

 The electronic state is 2-A.
 Alpha  occ. eigenvalues --  -10.19556 -10.18164 -10.17652 -10.17177 -10.16945
 Alpha  occ. eigenvalues --  -10.16806  -0.81947  -0.73065  -0.67972  -0.66957
 Alpha  occ. eigenvalues --   -0.61698  -0.52416  -0.45562  -0.44990  -0.43239
 Alpha  occ. eigenvalues --   -0.41216  -0.39855  -0.37774  -0.37487  -0.35604
 Alpha  occ. eigenvalues --   -0.34395  -0.32564  -0.32018  -0.30844  -0.19616
 Alpha virt. eigenvalues --    0.08297   0.12906   0.13587   0.13988   0.14472
 Alpha virt. eigenvalues --    0.15402   0.16747   0.17525   0.18471   0.19023
 Alpha virt. eigenvalues --    0.20495   0.21606   0.22665   0.22833   0.24607

  Beta  occ. eigenvalues --  -10.19638 -10.17612 -10.17043 -10.16922 -10.16795
  Beta  occ. eigenvalues --  -10.16786  -0.81394  -0.72861  -0.67812  -0.64478
  Beta  occ. eigenvalues --   -0.61333  -0.51832  -0.45271  -0.44675  -0.42917
  Beta  occ. eigenvalues --   -0.40891  -0.39510  -0.37664  -0.37165  -0.35509
  Beta  occ. eigenvalues --   -0.34196  -0.31937  -0.31618  -0.30704
  Beta virt. eigenvalues --   -0.03842   0.08448   0.13167   0.13717   0.14309
  Beta virt. eigenvalues --    0.15038   0.15663   0.16827   0.17782   0.18578
  Beta virt. eigenvalues --    0.19259   0.20979   0.21706   0.22928   0.23014

 Mulliken charges and spin densities:
               1          2
     1  C   -0.437226   0.039786
     2  H    0.137392   0.016783
     3  H    0.139307  -0.001148
     4  H    0.140017  -0.000702
     5  C    0.106691  -0.066320
     6  C   -0.248467   0.015242
     7  H    0.125900  -0.000959
     8  H    0.125473  -0.000043
     9  C   -0.448390   0.006360
    10  H    0.144484   0.000210
    11  H    0.139625  -0.000111
    12  H    0.148604   0.000994
    13  C   -0.314437   1.082540
    14  H    0.136653  -0.050714
    15  H    0.134742  -0.050048
    16  C   -0.453807   0.007783
    17  H    0.138207  -0.000623
    18  H    0.136910   0.000194
    19  H    0.148320   0.000776
 Sum of Mulliken charges =   0.00000   1.00000

 Dipole moment (field-independent basis, Debye):
    X=              0.1206    Y=             -0.0693    Z=             -0.1359  Tot=              0.1945
 Quadrupole moment (field-independent basis, Debye-Ang):
   XX=            -41.3119   YY=            -40.5442   ZZ=            -40.7085
   XY=              0.6266   XZ=              0.4246   YZ=             -0.2085

  Exact polarizability:  65.229   1.716  60.839   0.313  -0.043  62.377
 Approx polarizability:  81.059   2.932  82.989   0.649  -0.172  87.092

                      1                      2                      3
                      A                      A                      A
 Frequencies --    110.6790               130.5422               214.9236
 Red. masses --      1.7784                 1.0189                 1.1843
 Frc consts  --      0.0128                 0.0102                 0.0322
 IR Inten    --      0.0163                 0.8736                 0.0584

                      4                      5                      6
                      A                      A                      A
 Frequencies --    238.4480               257.9376               282.5541
 Red. masses --      1.4461                 1.3611                 1.1082
 Frc consts  --      0.0484                 0.0534                 0.0521
 IR Inten    --      0.1084                 0.0013                 0.0139

                      7                      8                      9
                      A                      A                      A
 Frequencies --    310.8996               347.2089               404.3265
 Red. masses --      1.7770                 2.1566                 2.1639
 Frc consts  --      0.1012                 0.1532                 0.2084
 IR Inten    --      2.7806                 0.6474                 0.0901

                     10                     11                     12
                      A                      A                      A
 Frequencies --    409.2318               459.1567               553.7144
 Red. masses --      1.9605                 1.9669                 2.2493
 Frc consts  --      0.1934                 0.2443                 0.4063
 IR Inten    --      1.8161                10.4805                23.4079

                     13                     14                     15
                      A                      A                      A
 Frequencies --    721.5928               795.9765               875.9075
 Red. masses --      3.0985                 1.1797                 1.9860
 Frc consts  --      0.9506                 0.4404                 0.8977
 IR Inten    --      0.4924                 2.3295                 0.0598

                     16                     17                     18
                      A                      A                      A
 Frequencies --    937.1575               951.4396               982.4019
 Red. masses --      1.7760                 1.5952                 1.4633
 Frc consts  --      0.9190                 0.8508                 0.8320
 IR Inten    --      0.1996                 0.7178                 0.3842

                     19                     20                     21
                      A                      A                      A
 Frequencies --   1017.1409              1026.2369              1070.9454
 Red. masses --      1.2648                 2.0474                 1.4955
 Frc consts  --      0.7710                 1.2704                 1.0106
 IR Inten    --      2.3750                 2.0665                 1.3429

                     22                     23                     24
                      A                      A                      A
 Frequencies --   1103.9753              1181.4475              1261.0201
 Red. masses --      1.7031                 2.2371                 1.9955
 Frc consts  --      1.2230                 1.8397                 1.8696
 IR Inten    --      1.1629                 7.3643                 1.3030

                     25                     26                     27
                      A                      A                      A
 Frequencies --   1278.5141              1348.5328              1380.4624
 Red. masses --      2.7786                 1.3823                 1.4076
 Frc consts  --      2.6760                 1.4811                 1.5804
 IR Inten    --      1.4637                 0.8389                 1.5356

                     28                     29                     30
                      A                      A                      A
 Frequencies --   1418.8155              1438.0891              1439.3370
 Red. masses --      1.2152                 1.2453                 1.2177
 Frc consts  --      1.4413                 1.5174                 1.4864
 IR Inten    --      2.0716                 5.1694                 2.0359

                     31                     32                     33
                      A                      A                      A
 Frequencies --   1485.2142              1508.9945              1515.5264
 Red. masses --      1.1734                 1.0614                 1.0470
 Frc consts  --      1.5250                 1.4240                 1.4169
 IR Inten    --      1.0044                 0.3091                 0.4816

                     34                     35                     36
                      A                      A                      A
 Frequencies --   1522.2788              1527.6914              1530.8354
 Red. masses --      1.0600                 1.0452                 1.0517
 Frc consts  --      1.4473                 1.4372                 1.4521
 IR Inten    --      2.3401                 4.9110                 5.3619

                     37                     38                     39
                      A                      A                      A
 Frequencies --   1538.4204              1545.4738              3021.5298
 Red. masses --      1.0654                 1.0587                 1.0582
 Frc consts  --      1.4857                 1.4899                 5.6918
 IR Inten    --      6.2483                 2.7785                24.3152

                     40                     41                     42
                      A                      A                      A
 Frequencies --   3032.4188              3043.1652              3049.4035
 Red. masses --      1.0373                 1.0366                 1.0359
 Frc consts  --      5.6199                 5.6560                 5.6755
 IR Inten    --     39.9271                25.4322                21.0476

                     43                     44                     45
                      A                      A                      A
 Frequencies --   3054.5893              3098.5178              3104.5858
 Red. masses --      1.1027                 1.1001                 1.1017
 Frc consts  --      6.0618                 6.2229                 6.2565
 IR Inten    --     22.3958                12.9614                42.1328

                     46                     47                     48
                      A                      A                      A
 Frequencies --   3111.6781              3115.1302              3116.7423
 Red. masses --      1.1022                 1.1027                 1.1023
 Frc consts  --      6.2876                 6.3045                 6.3087
 IR Inten    --     21.9635                51.5245                52.4030

                     49                     50                     51
                      A                      A                      A
 Frequencies --   3123.8406              3150.1628              3247.6266
 Red. masses --      1.1007                 1.0509                 1.1180
 Frc consts  --      6.3282                 6.1444                 6.9473
 IR Inten    --     30.1742                18.1922                19.5529

 - Thermochemistry -
 -------------------
 Temperature   298.150 Kelvin.  Pressure   1.00000 Atm.
 Atom     1 has atomic number  6 and mass  12.00000

 Molecular mass:    85.10173 amu.
 Principal axes and moments of inertia in atomic units:
                           1         2         3
     Eigenvalues --   408.45830 709.50699 725.25051
           X            0.99996  -0.00254  -0.00850
           Y            0.00232   0.99967  -0.02571
           Z            0.00856   0.02569   0.99963
 This molecule is an asymmetric top.
 Rotational symmetry number  1.
 Rotational temperatures (Kelvin)      0.21205     0.12208     0.11943
 Rotational constants (GHZ):           4.41842     2.54366     2.48844
 Zero-point vibrational energy     456928.3 (Joules/Mol)
                                  109.20848 (Kcal/Mol)
 Warning -- explicit consideration of  12 degrees of freedom as
           vibrations may cause significant error
 Vibrational temperatures:    159.24   187.82   309.23   343.07   371.11
          (Kelvin)            406.53   447.31   499.56   581.73   588.79
                              660.62   796.67  1038.21  1145.23  1260.23
                             1348.36  1368.91  1413.46  1463.44  1476.52
                             1540.85  1588.37  1699.84  1814.32  1839.49
                             1940.24  1986.17  2041.36  2069.09  2070.88
                             2136.89  2171.10  2180.50  2190.22  2198.00
                             2202.53  2213.44  2223.59  4347.30  4362.97
                             4378.43  4387.41  4394.87  4458.07  4466.80
                             4477.01  4481.97  4484.29  4494.50  4532.38
                             4672.60

 Zero-point correction=                           0.174035 (Hartree/Particle)
 Thermal correction to Energy=                    0.182648
 Thermal correction to Enthalpy=                  0.183593
 Thermal correction to Gibbs Free Energy=         0.141807
 Sum of electronic and zero-point Energies=           -236.237099
 Sum of electronic and thermal Energies=              -236.228485
 Sum of electronic and thermal Enthalpies=            -236.227541
 Sum of electronic and thermal Free Energies=         -236.269327

                     E (Thermal)             CV                S
                      KCal/Mol        Cal/Mol-Kelvin    Cal/Mol-Kelvin
 Total                  114.614             31.675             87.946
 Electronic               0.000              0.000              1.377
 Translational            0.889              2.981             39.237
 Rotational               0.889              2.981             26.844
 Vibrational            112.836             25.714             20.487
 Vibration     1          0.607              1.941              3.257
 Vibration     2          0.612              1.923              2.938
 Vibration     3          0.645              1.818              2.001
 Vibration     4          0.656              1.782              1.814
 Vibration     5          0.667              1.749              1.676
 Vibration     6          0.682              1.706              1.518
 Vibration     7          0.700              1.653              1.358
 Vibration     8          0.725              1.581              1.179
 Vibration     9          0.770              1.461              0.947
 Vibration    10          0.774              1.450              0.929
 Vibration    11          0.817              1.341              0.769
 Vibration    12          0.909              1.132              0.537

 Optimization completed.
    -- Stationary point found.
 Normal termination of Gaussian 09 at Sat Nov  7 02:34:53 2015.
