 Gaussian 09, Revision A.01,
 Gaussian 09:  EM64L-G09RevA.01  8-May-2009

 -----------------------------------------
 #p B3LYP/6-31G(d) opt=tight int=ultrafine
 -----------------------------------------

 ---------------------------------------------
 using B3LYP/6-31G(d) to do opt and freq calc.
 ---------------------------------------------
 Symbolic Z-matrix:
 Charge =  0 Multiplicity = 1

 SCF Done:  E(RB3LYP) =  -237.082854749     A.U. after   11 cycles
 SCF Done:  E(RB3LYP) =  -237.083903399     A.U. after    9 cycles
 SCF Done:  E(RB3LYP) =  -237.084058595     A.U. after    9 cycles
 SCF Done:  E(RB3LYP) =  -237.084091823     A.U. after    8 cycles
 SCF Done:  E(RB3LYP) =  -237.084098269     A.U. after   12 cycles
 SCF Done:  E(RB3LYP) =  -237.084098667     A.U. after    6 cycles
 SCF Done:  E(RB3LYP) =  -237.084098699     A.U. after    5 cycles
 SCF Done:  E(RB3LYP) =  -237.084098700     A.U. after    5 cycles
 Optimization completed.
    -- Stationary point found.

                         Standard orientation:
 ---------------------------------------------------------------------
 Center     Atomic      Atomic             Coordinates (Angstroms)
 Number     Number       Type             X           Y           Z
 ---------------------------------------------------------------------
      1          6           0        3.048721   -0.321076    0.088513
      2          1           0        3.157621   -0.334402    1.180142
      3          1           0        3.509846    0.604880   -0.277078
      4          1           0        3.625726   -1.161896   -0.313363
      5          6           0        1.574589   -0.404971   -0.321490
      6          1           0        1.499939   -0.420598   -1.418603
      7          1           0        1.158140   -1.359691    0.025608
      8          6           0        0.736072    0.760802    0.222032
      9          1           0        1.200756    1.704717   -0.097616
     10          1           0        0.783282    0.758459    1.321609
     11          6           0       -0.736072    0.760802   -0.222032
     12          1           0       -0.783282    0.758459   -1.321609
     13          1           0       -1.200756    1.704717    0.097616
     14          6           0       -1.574589   -0.404971    0.321490
     15          1           0       -1.499939   -0.420598    1.418603
     16          1           0       -1.158140   -1.359691   -0.025608
     17          6           0       -3.048721   -0.321076   -0.088513
     18          1           0       -3.157621   -0.334402   -1.180142
     19          1           0       -3.625726   -1.161895    0.313363
     20          1           0       -3.509846    0.604880    0.277078
 ---------------------------------------------------------------------

 The electronic state is 1-A.
 Alpha  occ. eigenvalues --  -10.17548 -10.17548 -10.17402 -10.17381 -10.16992
 Alpha  occ. eigenvalues --  -10.16992  -0.79893  -0.75954  -0.70327  -0.63218
 Alpha  occ. eigenvalues --   -0.59213  -0.55803  -0.46189  -0.45023  -0.42961
 Alpha  occ. eigenvalues --   -0.40679  -0.40449  -0.38573  -0.35945  -0.35238
 Alpha  occ. eigenvalues --   -0.34237  -0.32734  -0.31660  -0.30967  -0.30576
 Alpha virt. eigenvalues --    0.09328   0.10612   0.12287   0.12738   0.13834
 Alpha virt. eigenvalues --    0.16364   0.16564   0.17972   0.18195   0.18273
 Alpha virt. eigenvalues --    0.19600   0.19963   0.20225   0.21578   0.24485

 Mulliken atomic charges:
              1
     1  C   -0.441413
     2  H    0.141014
     3  H    0.140654
     4  H    0.140700
     5  C   -0.247958
     6  H    0.128623
     7  H    0.134996
     8  C   -0.247569
     9  H    0.125790
    10  H    0.125162
    11  C   -0.247569
    12  H    0.125162
    13  H    0.125790
    14  C   -0.247958
    15  H    0.128623
    16  H    0.134996
    17  C   -0.441413
    18  H    0.141014
    19  H    0.140700
    20  H    0.140654
 Sum of Mulliken atomic charges =   0.00000

 Dipole moment (field-independent basis, Debye):
    X=              0.0000    Y=             -0.0258    Z=              0.0000  Tot=              0.0258
 Quadrupole moment (field-independent basis, Debye-Ang):
   XX=            -42.4722   YY=            -41.2875   ZZ=            -41.1162
   XY=              0.0000   XZ=             -0.3135   YZ=              0.0000

 Normal termination of Gaussian 09 at Fri Sep 18 13:28:43 2015.
