 Gaussian 09, Revision A.01,
 Gaussian 09:  EM64L-G09RevA.01  8-May-2009

 ----------
 #p PM6 opt
 ----------

 ----------------------------------
 using PM6 to do opt and freq calc.
 ----------------------------------
 Symbolic Z-matrix:
 Charge =  0 Multiplicity = 1

 SCF Done:  E(RPM6) = -0.528462921463E-01 A.U. after   12 cycles
 SCF Done:  E(RPM6) = -0.551098186641E-01 A.U. after   11 cycles
 SCF Done:  E(RPM6) = -0.553169615837E-01 A.U. after   15 cycles
 SCF Done:  E(RPM6) = -0.553838410332E-01 A.U. after   10 cycles
 SCF Done:  E(RPM6) = -0.554165833609E-01 A.U. after   10 cycles
 SCF Done:  E(RPM6) = -0.554276534080E-01 A.U. after   10 cycles
 SCF Done:  E(RPM6) = -0.554331488560E-01 A.U. after    9 cycles
 SCF Done:  E(RPM6) = -0.554350610715E-01 A.U. after    9 cycles
 SCF Done:  E(RPM6) = -0.554352408427E-01 A.U. after    8 cycles
 Optimization completed.
    -- Stationary point found.

                         Standard orientation:
 ---------------------------------------------------------------------
 Center     Atomic      Atomic             Coordinates (Angstroms)
 Number     Number       Type             X           Y           Z
 ---------------------------------------------------------------------
      1          6           0       -2.749844   -0.473397    0.080495
      2          1           0       -2.876429   -0.625833    1.158188
      3          1           0       -2.359463   -1.408746   -0.336623
      4          1           0       -3.744010   -0.310237   -0.349293
      5          6           0       -1.819788    0.701852   -0.213824
      6          1           0       -1.746360    0.855166   -1.308298
      7          1           0       -2.265521    1.632772    0.189636
      8          6           0       -0.416708    0.518218    0.382683
      9          1           0       -0.496133    0.224479    1.446819
     10          1           0        0.111739    1.491623    0.379373
     11          6           0        0.416708   -0.518221   -0.382677
     12          1           0        0.496129   -0.224485   -1.446813
     13          1           0       -0.111737   -1.491628   -0.379361
     14          6           0        1.819790   -0.701851    0.213827
     15          1           0        2.265523   -1.632772   -0.189632
     16          1           0        1.746367   -0.855159    1.308301
     17          6           0        2.749843    0.473399   -0.080502
     18          1           0        2.359451    1.408753    0.336594
     19          1           0        3.744005    0.310252    0.349300
     20          1           0        2.876441    0.625816   -1.158196
 ---------------------------------------------------------------------

 The electronic state is 1-A.
 Alpha  occ. eigenvalues --   -1.05703  -0.99755  -0.90156  -0.83651  -0.74884
 Alpha  occ. eigenvalues --   -0.71748  -0.58132  -0.56439  -0.55518  -0.51945
 Alpha  occ. eigenvalues --   -0.51306  -0.49177  -0.46462  -0.45032  -0.44830
 Alpha  occ. eigenvalues --   -0.42573  -0.41504  -0.40832  -0.40145
 Alpha virt. eigenvalues --    0.15392   0.16522   0.16701   0.17286   0.18099
 Alpha virt. eigenvalues --    0.21070   0.21261   0.21369   0.22221   0.22271
 Alpha virt. eigenvalues --    0.22836   0.23164   0.23295   0.24200   0.24505

 Mulliken atomic charges:
              1
     1  C   -0.459258
     2  H    0.145513
     3  H    0.146489
     4  H    0.141391
     5  C   -0.223627
     6  H    0.126462
     7  H    0.122549
     8  C   -0.259514
     9  H    0.131532
    10  H    0.128463
    11  C   -0.259514
    12  H    0.131533
    13  H    0.128463
    14  C   -0.223627
    15  H    0.122549
    16  H    0.126462
    17  C   -0.459258
    18  H    0.146489
    19  H    0.141391
    20  H    0.145512
 Sum of Mulliken atomic charges =   0.00000

 Dipole moment (field-independent basis, Debye):
    X=              0.0000    Y=              0.0000    Z=              0.0000  Tot=              0.0000
 N-N= 1.639373055106D+02 E-N=-2.488864809567D+02  KE=-5.610315692843D+01
 Leave Link  601 at Mon Sep 14 19:13:32 2015, MaxMem=  402653184 cpu:       0.0
 (Enter /share/apps/g09/l9999.exe)
 1\1\GINC-COMPUTE-0-5\FOpt\RPM6\ZDO\C6H14\HETANJIN\14-Sep-2015\0\\#p PM
 6 opt\\using PM6 to do opt and freq calc.\\0,1\C,1.7051875301,2.097356
 2912,-0.7667665854\H,1.8150947832,1.8059920168,-1.8173420432\H,1.91630
 89741,1.2098262907,-0.1593287564\H,2.4801083574,2.8395138966,-0.546758
 1771\C,0.3108086943,2.6517931651,-0.481901991\H,0.2461390009,2.9750154
 368,0.5755073386\H,0.1494116014,3.5672547699,-1.0851863803\C,-0.807410
 3442,1.6451490779,-0.7891959432\H,-0.6593333571,1.2152387257,-1.798267

 Normal termination of Gaussian 09 at Mon Sep 14 19:13:33 2015.
