 Gaussian 09, Revision A.01,
 Gaussian 09:  EM64L-G09RevA.01  8-May-2009

 ----------
 #p PM6 opt
 ----------

 ----------------------------------
 using PM6 to do opt and freq calc.
 ----------------------------------
 Symbolic Z-matrix:
 Charge =  0 Multiplicity = 1

 SCF Done:  E(RPM6) = -0.548156635544E-01 A.U. after   12 cycles
 SCF Done:  E(RPM6) = -0.571443720574E-01 A.U. after   10 cycles
 SCF Done:  E(RPM6) = -0.572706681913E-01 A.U. after   10 cycles
 SCF Done:  E(RPM6) = -0.572832575199E-01 A.U. after    9 cycles
 SCF Done:  E(RPM6) = -0.572847022389E-01 A.U. after    8 cycles
 Optimization completed.
    -- Stationary point found.

                         Standard orientation:
 ---------------------------------------------------------------------
 Center     Atomic      Atomic             Coordinates (Angstroms)
 Number     Number       Type             X           Y           Z
 ---------------------------------------------------------------------
      1          6           0        1.423114    2.862631    0.000000
      2          1           0        0.914667    3.265996    0.882967
      3          1           0        0.914667    3.265996   -0.882967
      4          1           0        2.444646    3.258594    0.000000
      5          6           0        1.423114    1.335282    0.000000
      6          1           0        1.976529    0.961706   -0.883555
      7          1           0        1.976529    0.961706    0.883555
      8          6           0       -0.003186    0.767178    0.000000
      9          1           0       -0.555842    1.142787   -0.882284
     10          1           0       -0.555842    1.142787    0.882284
     11          6           0        0.003186   -0.767178    0.000000
     12          1           0        0.555842   -1.142787    0.882284
     13          1           0        0.555842   -1.142787   -0.882284
     14          6           0       -1.423114   -1.335282    0.000000
     15          1           0       -1.976529   -0.961706   -0.883555
     16          1           0       -1.976529   -0.961706    0.883555
     17          6           0       -1.423114   -2.862631    0.000000
     18          1           0       -0.914667   -3.265996    0.882967
     19          1           0       -2.444646   -3.258594    0.000000
     20          1           0       -0.914667   -3.265996   -0.882967
 ---------------------------------------------------------------------

 The electronic state is 1-AG.
 Alpha  occ. eigenvalues --   -1.05505  -1.00299  -0.91562  -0.81025  -0.74227
 Alpha  occ. eigenvalues --   -0.73561  -0.60289  -0.55695  -0.54559  -0.53165
 Alpha  occ. eigenvalues --   -0.49946  -0.48419  -0.48412  -0.44931  -0.44329
 Alpha  occ. eigenvalues --   -0.42734  -0.41781  -0.41112  -0.40450
 Alpha virt. eigenvalues --    0.14991   0.15764   0.16563   0.18165   0.18515
 Alpha virt. eigenvalues --    0.20202   0.20873   0.21796   0.22023   0.22090
 Alpha virt. eigenvalues --    0.22585   0.23168   0.23625   0.24003   0.24474

 Mulliken atomic charges:
              1
     1  C   -0.464386
     2  H    0.146480
     3  H    0.146480
     4  H    0.143937
     5  C   -0.220818
     6  H    0.125847
     7  H    0.125847
     8  C   -0.267008
     9  H    0.131810
    10  H    0.131810
    11  C   -0.267008
    12  H    0.131810
    13  H    0.131810
    14  C   -0.220818
    15  H    0.125847
    16  H    0.125847
    17  C   -0.464386
    18  H    0.146480
    19  H    0.143937
    20  H    0.146480
 Sum of Mulliken atomic charges =   0.00000

 Dipole moment (field-independent basis, Debye):
    X=              0.0000    Y=              0.0000    Z=              0.0000  Tot=              0.0000
 N-N= 1.610820197232D+02 E-N=-2.431718079478D+02  KE=-5.606673775102D+01
 Leave Link  601 at Mon Sep 14 19:13:00 2015, MaxMem=  402653184 cpu:       0.1
 (Enter /share/apps/g09/l9999.exe)
 1\1\GINC-COMPUTE-0-12\FOpt\RPM6\ZDO\C6H14\HETANJIN\14-Sep-2015\0\\#p P
 M6 opt\\using PM6 to do opt and freq calc.\\0,1\C,3.1899657122,-0.2098
 337498,0.\H,3.2828579684,-0.8521679575,-0.88296715\H,3.2828579684,-0.8
 521679575,0.88296715\H,4.0460021919,0.4739169071,0.\C,1.8698768948,0.5
 583849333,0.\H,1.8253481006,1.2246016268,0.8835549056\H,1.8253481006,1
 .2246016268,-0.8835549056\C,0.6614702921,-0.3886255066,0.\H,0.70813628
 57,-1.055208454,0.8822844737\H,0.7081362857,-1.055208454,-0.8822844737

 Normal termination of Gaussian 09 at Mon Sep 14 19:13:04 2015.
