 Gaussian 09, Revision D.01,
 Gaussian 09:  ES64L-G09RevD.01 24-Apr-2013

 ----------------------------------------------
 #p B3LYP/6-31G(d) opt=tight int=ultrafine freq
 ----------------------------------------------

 ---------------------------------------------
 using B3LYP/6-31G(d) to do opt and freq calc.
 ---------------------------------------------
 Symbolic Z-matrix:
 Charge =  0 Multiplicity = 2

 SCF Done:  E(UB3LYP) =  -236.410698741     A.U. after   14 cycles
 SCF Done:  E(UB3LYP) =  -236.418659330     A.U. after   12 cycles
 SCF Done:  E(UB3LYP) =  -236.420797626     A.U. after   12 cycles
 SCF Done:  E(UB3LYP) =  -236.420950165     A.U. after   11 cycles
 SCF Done:  E(UB3LYP) =  -236.420992591     A.U. after   10 cycles
 SCF Done:  E(UB3LYP) =  -236.421015899     A.U. after    9 cycles
 SCF Done:  E(UB3LYP) =  -236.421026638     A.U. after    9 cycles
 SCF Done:  E(UB3LYP) =  -236.421027117     A.U. after    7 cycles
 SCF Done:  E(UB3LYP) =  -236.421027153     A.U. after    6 cycles
 SCF Done:  E(UB3LYP) =  -236.421027154     A.U. after    5 cycles
 SCF Done:  E(UB3LYP) =  -236.421027154     A.U. after    4 cycles
 Optimization completed.
    -- Stationary point found.
 Normal termination of Gaussian 09 at Sat Nov  7 02:18:38 2015.

 --------------------------------------------------------------------
 #P Geom=AllCheck Guess=TCheck SCRF=Check GenChk UB3LYP/6-31G(d) Freq
 --------------------------------------------------------------------

 Structure from the checkpoint file:  "/state/partition1/Gau-3391.chk"
 ---------------------------------------------
 using B3LYP/6-31G(d) to do opt and freq calc.
 ---------------------------------------------
 Charge =  0 Multiplicity = 2

                         Standard orientation:
 ---------------------------------------------------------------------
 Center     Atomic      Atomic             Coordinates (Angstroms)
 Number     Number       Type             X           Y           Z
 ---------------------------------------------------------------------
      1          6           0        1.482428    1.259384   -0.106067
      2          1           0        1.048604    2.176708    0.304138
      3          1           0        1.482869    1.345883   -1.199981
      4          1           0        2.525717    1.211765    0.226352
      5          6           0        0.718114   -0.000008    0.345830
      6          1           0        0.738994   -0.000018    1.456020
      7          6           0       -0.737694   -0.000003   -0.077613
      8          6           0       -1.513162   -1.285409   -0.032062
      9          1           0       -1.620796   -1.671379    0.999677
     10          1           0       -2.526767   -1.152810   -0.426278
     11          1           0       -1.036156   -2.088163   -0.607562
     12          6           0        1.482440   -1.259385   -0.106092
     13          1           0        1.048640   -2.176720    0.304112
     14          1           0        1.482864   -1.345874   -1.200007
     15          1           0        2.525734   -1.211752    0.226308
     16          6           0       -1.513139    1.285417   -0.032083
     17          1           0       -1.620792    1.671390    0.999653
     18          1           0       -1.036099    2.088161   -0.607571
     19          1           0       -2.526735    1.152838   -0.426327
 ---------------------------------------------------------------------

 SCF Done:  E(UB3LYP) =  -236.421027154     A.U. after    1 cycles

 The electronic state is 2-A.
 Alpha  occ. eigenvalues --  -10.18649 -10.18438 -10.17216 -10.17215 -10.16878
 Alpha  occ. eigenvalues --  -10.16877  -0.81201  -0.74326  -0.69273  -0.66652
 Alpha  occ. eigenvalues --   -0.60620  -0.51663  -0.45841  -0.44731  -0.42188
 Alpha  occ. eigenvalues --   -0.41420  -0.38861  -0.38786  -0.37584  -0.36234
 Alpha  occ. eigenvalues --   -0.35724  -0.33207  -0.31741  -0.31635  -0.16637
 Alpha virt. eigenvalues --    0.08624   0.12684   0.13010   0.14087   0.14518
 Alpha virt. eigenvalues --    0.15968   0.17251   0.17576   0.18041   0.18738
 Alpha virt. eigenvalues --    0.18985   0.20401   0.22164   0.24104   0.24854

  Beta  occ. eigenvalues --  -10.18728 -10.17301 -10.17300 -10.17076 -10.16851
  Beta  occ. eigenvalues --  -10.16850  -0.80124  -0.73661  -0.69098  -0.66561
  Beta  occ. eigenvalues --   -0.59980  -0.50160  -0.45309  -0.44217  -0.41923
  Beta  occ. eigenvalues --   -0.40283  -0.38669  -0.38451  -0.37300  -0.36085
  Beta  occ. eigenvalues --   -0.35444  -0.32813  -0.31397  -0.31194
  Beta virt. eigenvalues --   -0.02475   0.08785   0.12791   0.13113   0.14319
  Beta virt. eigenvalues --    0.14814   0.16120   0.17566   0.18069   0.18158
  Beta virt. eigenvalues --    0.19106   0.19413   0.20452   0.22221   0.25336

 Mulliken charges and spin densities:
               1          2
     1  C   -0.448430   0.008349
     2  H    0.144430  -0.000811
     3  H    0.142547   0.002458
     4  H    0.137611  -0.000061
     5  C   -0.099685  -0.065542
     6  H    0.120834   0.058354
     7  C    0.143194   0.962774
     8  C   -0.500059  -0.078674
     9  H    0.142920   0.064368
    10  H    0.143978   0.004311
    11  H    0.154832   0.022266
    12  C   -0.448429   0.008350
    13  H    0.144430  -0.000811
    14  H    0.142547   0.002459
    15  H    0.137612  -0.000061
    16  C   -0.500059  -0.078675
    17  H    0.142921   0.064370
    18  H    0.154832   0.022265
    19  H    0.143977   0.004312
 Sum of Mulliken charges =   0.00000   1.00000

 Dipole moment (field-independent basis, Debye):
    X=             -0.0611    Y=              0.0000    Z=              0.2112  Tot=              0.2199
 Quadrupole moment (field-independent basis, Debye-Ang):
   XX=            -40.4715   YY=            -40.6456   ZZ=            -40.8779
   XY=              0.0000   XZ=              0.1404   YZ=              0.0000

  Exact polarizability:  70.265   0.000  67.855   0.598   0.000  53.985
 Approx polarizability:  87.090   0.000  86.642   1.417   0.000  79.574

                      1                      2                      3
                      A                      A                      A
 Frequencies --     16.2734               105.0410               111.0895
 Red. masses --      2.5634                 1.0738                 1.0808
 Frc consts  --      0.0004                 0.0070                 0.0079
 IR Inten    --      0.0280                 0.2532                 0.0331

                      4                      5                      6
                      A                      A                      A
 Frequencies --    217.0896               222.8927               280.8192
 Red. masses --      1.6182                 1.2630                 1.5075
 Frc consts  --      0.0449                 0.0370                 0.0700
 IR Inten    --      1.0649                 0.0011                 0.7511

                      7                      8                      9
                      A                      A                      A
 Frequencies --    309.1331               386.0944               416.3417
 Red. masses --      1.6228                 1.9546                 2.0972
 Frc consts  --      0.0914                 0.1717                 0.2142
 IR Inten    --      0.0208                 0.0637                 0.0295

                     10                     11                     12
                      A                      A                      A
 Frequencies --    431.7957               478.1261               707.7298
 Red. masses --      2.8943                 2.3229                 2.9254
 Frc consts  --      0.3179                 0.3129                 0.8633
 IR Inten    --      0.0021                 0.8362                 0.7998

                     13                     14                     15
                      A                      A                      A
 Frequencies --    874.6390               932.0551               952.3791
 Red. masses --      2.5767                 1.1554                 1.2258
 Frc consts  --      1.1614                 0.5914                 0.6551
 IR Inten    --      1.9327                 0.7809                 0.1484

                     16                     17                     18
                      A                      A                      A
 Frequencies --    974.5593               981.6825              1006.4716
 Red. masses --      1.4953                 1.7096                 1.3281
 Frc consts  --      0.8367                 0.9707                 0.7927
 IR Inten    --      0.0286                 0.0385                 3.3209

                     19                     20                     21
                      A                      A                      A
 Frequencies --   1025.5838              1118.4685              1121.5470
 Red. masses --      1.2775                 1.6040                 2.5037
 Frc consts  --      0.7917                 1.1822                 1.8555
 IR Inten    --      0.9743                 3.6026                 1.0248

                     22                     23                     24
                      A                      A                      A
 Frequencies --   1191.9734              1270.0564              1287.0491
 Red. masses --      1.8389                 2.7568                 1.8601
 Frc consts  --      1.5394                 2.6200                 1.8154
 IR Inten    --      5.2760                 4.0575                 9.0828

                     25                     26                     27
                      A                      A                      A
 Frequencies --   1349.6063              1349.7957              1423.7684
 Red. masses --      1.5036                 1.9491                 1.2807
 Frc consts  --      1.6136                 2.0923                 1.5296
 IR Inten    --      1.1112                 4.8534                 0.2398

                     28                     29                     30
                      A                      A                      A
 Frequencies --   1428.5821              1444.6401              1450.4325
 Red. masses --      1.2180                 1.2348                 1.1981
 Frc consts  --      1.4646                 1.5183                 1.4851
 IR Inten    --      2.6262                 6.0205                 0.1562

                     31                     32                     33
                      A                      A                      A
 Frequencies --   1500.7059              1510.0105              1514.8874
 Red. masses --      1.0473                 1.0604                 1.0590
 Frc consts  --      1.3897                 1.4245                 1.4318
 IR Inten    --      1.3387                 0.2294                11.0172

                     34                     35                     36
                      A                      A                      A
 Frequencies --   1522.2301              1522.9010              1530.5485
 Red. masses --      1.0448                 1.0504                 1.0488
 Frc consts  --      1.4263                 1.4354                 1.4476
 IR Inten    --     12.9220                 0.2752                 2.6534

                     37                     38                     39
                      A                      A                      A
 Frequencies --   1536.0695              1550.1387              2889.5937
 Red. masses --      1.0501                 1.0512                 1.0790
 Frc consts  --      1.4598                 1.4883                 5.3081
 IR Inten    --      4.4523                 2.0306                43.5325

                     40                     41                     42
                      A                      A                      A
 Frequencies --   2944.9392              2951.1234              3042.3727
 Red. masses --      1.0615                 1.0639                 1.0368
 Frc consts  --      5.4241                 5.4590                 5.6541
 IR Inten    --     38.1846                57.7309                21.5269

                     43                     44                     45
                      A                      A                      A
 Frequencies --   3046.9654              3061.5099              3063.5618
 Red. masses --      1.0381                 1.0685                 1.0686
 Frc consts  --      5.6782                 5.9003                 5.9092
 IR Inten    --     23.7939                19.6968                37.4087

                     46                     47                     48
                      A                      A                      A
 Frequencies --   3103.6471              3104.9597              3110.4237
 Red. masses --      1.1020                 1.1019                 1.1005
 Frc consts  --      6.2544                 6.2587                 6.2732
 IR Inten    --      2.5863                 0.8423                28.5058

                     49                     50                     51
                      A                      A                      A
 Frequencies --   3111.1061              3123.3992              3124.5896
 Red. masses --      1.1002                 1.1008                 1.1005
 Frc consts  --      6.2744                 6.3270                 6.3304
 IR Inten    --    111.2270                37.2865                25.6057

 - Thermochemistry -
 -------------------
 Temperature   298.150 Kelvin.  Pressure   1.00000 Atm.
 Atom     1 has atomic number  6 and mass  12.00000

 Molecular mass:    85.10173 amu.
 Principal axes and moments of inertia in atomic units:
                           1         2         3
     Eigenvalues --   432.93341 610.83202 970.53141
           X            0.99999   0.00000  -0.00348
           Y            0.00000   1.00000   0.00000
           Z            0.00348   0.00000   0.99999
 This molecule is an asymmetric top.
 Rotational symmetry number  1.
 Rotational temperatures (Kelvin)      0.20006     0.14180     0.08924
 Rotational constants (GHZ):           4.16863     2.95456     1.85954
 Zero-point vibrational energy     458955.7 (Joules/Mol)
                                  109.69304 (Kcal/Mol)
 Warning -- explicit consideration of  11 degrees of freedom as
           vibrations may cause significant error
 Vibrational temperatures:     23.41   151.13   159.83   312.34   320.69
          (Kelvin)            404.04   444.77   555.50   599.02   621.26
                              687.92  1018.26  1258.41  1341.02  1370.26
                             1402.17  1412.42  1448.09  1475.58  1609.22
                             1613.65  1714.98  1827.33  1851.77  1941.78
                             1942.05  2048.48  2055.41  2078.51  2086.85
                             2159.18  2172.57  2179.58  2190.15  2191.11
                             2202.12  2210.06  2230.30  4157.48  4237.11
                             4246.00  4377.29  4383.90  4404.82  4407.78
                             4465.45  4467.34  4475.20  4476.18  4493.87
                             4495.58

 Zero-point correction=                           0.174807 (Hartree/Particle)
 Thermal correction to Energy=                    0.183615
 Thermal correction to Enthalpy=                  0.184559
 Thermal correction to Gibbs Free Energy=         0.140330
 Sum of electronic and zero-point Energies=           -236.246220
 Sum of electronic and thermal Energies=              -236.237412
 Sum of electronic and thermal Enthalpies=            -236.236468
 Sum of electronic and thermal Free Energies=         -236.280697

                     E (Thermal)             CV                S
                      KCal/Mol        Cal/Mol-Kelvin    Cal/Mol-Kelvin
 Total                  115.220             30.452             93.087
 Electronic               0.000              0.000              1.377
 Translational            0.889              2.981             39.237
 Rotational               0.889              2.981             27.042
 Vibrational            113.443             24.490             25.430
 Vibration     1          0.593              1.986              7.044
 Vibration     2          0.605              1.945              3.359
 Vibration     3          0.607              1.940              3.250
 Vibration     4          0.646              1.815              1.983
 Vibration     5          0.649              1.806              1.935
 Vibration     6          0.680              1.709              1.529
 Vibration     7          0.698              1.656              1.367
 Vibration     8          0.755              1.500              1.015
 Vibration     9          0.780              1.435              0.904
 Vibration    10          0.793              1.401              0.853
 Vibration    11          0.835              1.299              0.715

 Normal termination of Gaussian 09 at Sat Nov  7 02:26:07 2015.
