 Gaussian 09, Revision D.01,
 Gaussian 09:  ES64L-G09RevD.01 24-Apr-2013

 ----------------------------------------------
 #p B3LYP/6-31G(d) opt=tight int=ultrafine freq
 ----------------------------------------------

 ---------------------------------------------
 using B3LYP/6-31G(d) to do opt and freq calc.
 ---------------------------------------------
 Symbolic Z-matrix:
 Charge =  0 Multiplicity = 2

 SCF Done:  E(UB3LYP) =  -236.402434223     A.U. after   14 cycles
 SCF Done:  E(UB3LYP) =  -236.410496578     A.U. after   13 cycles
 SCF Done:  E(UB3LYP) =  -236.412532671     A.U. after   12 cycles
 SCF Done:  E(UB3LYP) =  -236.412686599     A.U. after   10 cycles
 SCF Done:  E(UB3LYP) =  -236.412713310     A.U. after    9 cycles
 SCF Done:  E(UB3LYP) =  -236.412720212     A.U. after    9 cycles
 SCF Done:  E(UB3LYP) =  -236.412720374     A.U. after    7 cycles
 SCF Done:  E(UB3LYP) =  -236.412720455     A.U. after    7 cycles
 SCF Done:  E(UB3LYP) =  -236.412720539     A.U. after    7 cycles
 SCF Done:  E(UB3LYP) =  -236.412720573     A.U. after    7 cycles
 SCF Done:  E(UB3LYP) =  -236.412720574     A.U. after    5 cycles
 Optimization completed.
    -- Stationary point found.
 Normal termination of Gaussian 09 at Sat Nov  7 02:03:37 2015.

 --------------------------------------------------------------------
 #P Geom=AllCheck Guess=TCheck SCRF=Check GenChk UB3LYP/6-31G(d) Freq
 --------------------------------------------------------------------

 Structure from the checkpoint file:  "/state/partition1/Gau-822.chk"
 ---------------------------------------------
 using B3LYP/6-31G(d) to do opt and freq calc.
 ---------------------------------------------
 Charge =  0 Multiplicity = 2

                         Standard orientation:
 ---------------------------------------------------------------------
 Center     Atomic      Atomic             Coordinates (Angstroms)
 Number     Number       Type             X           Y           Z
 ---------------------------------------------------------------------
      1          6           0        3.150612   -0.222188    0.023277
      2          1           0        3.239917   -0.927419   -0.812316
      3          1           0        3.230054   -0.800131    0.952378
      4          1           0        4.010096    0.456514   -0.020894
      5          6           0        1.826391    0.545860   -0.039606
      6          1           0        1.782042    1.267670    0.788414
      7          1           0        1.791890    1.141247   -0.963074
      8          6           0        0.594227   -0.366132    0.019296
      9          1           0        0.628724   -0.962567    0.943502
     10          1           0        0.639505   -1.089053   -0.809118
     11          6           0       -0.735076    0.395381   -0.043743
     12          1           0       -0.776042    0.990096   -0.966864
     13          1           0       -0.782968    1.116001    0.785991
     14          6           0       -1.968920   -0.521784    0.018381
     15          1           0       -1.895905   -1.139223    0.935374
     16          1           0       -1.934745   -1.244014   -0.811001
     17          6           0       -3.266493    0.213781   -0.002809
     18          1           0       -4.179280   -0.266275   -0.341658
     19          1           0       -3.357728    1.187643    0.470495
 ---------------------------------------------------------------------

 SCF Done:  E(UB3LYP) =  -236.412720574     A.U. after    1 cycles

 The electronic state is 2-A.
 Alpha  occ. eigenvalues --  -10.18324 -10.18257 -10.17724 -10.17693 -10.17556
 Alpha  occ. eigenvalues --  -10.17088  -0.80196  -0.76356  -0.70203  -0.62971
 Alpha  occ. eigenvalues --   -0.57683  -0.57264  -0.47406  -0.44259  -0.43172
 Alpha  occ. eigenvalues --   -0.41892  -0.38905  -0.38819  -0.37307  -0.34634
 Alpha  occ. eigenvalues --   -0.33504  -0.32477  -0.31963  -0.31177  -0.19481
 Alpha virt. eigenvalues --    0.09355   0.11180   0.12295   0.13129   0.13401
 Alpha virt. eigenvalues --    0.16207   0.16450   0.17542   0.18519   0.19496
 Alpha virt. eigenvalues --    0.19918   0.20435   0.21189   0.23230   0.24540

  Beta  occ. eigenvalues --  -10.18349 -10.17725 -10.17655 -10.17554 -10.17087
  Beta  occ. eigenvalues --  -10.16939  -0.79960  -0.75751  -0.69271  -0.61869
  Beta  occ. eigenvalues --   -0.57329  -0.56322  -0.47246  -0.43850  -0.42826
  Beta  occ. eigenvalues --   -0.41552  -0.38525  -0.38336  -0.36904  -0.34371
  Beta  occ. eigenvalues --   -0.33246  -0.32391  -0.31916  -0.30975
  Beta virt. eigenvalues --   -0.03409   0.09384   0.11347   0.12384   0.13219
  Beta virt. eigenvalues --    0.14391   0.16460   0.16632   0.17725   0.18675
  Beta virt. eigenvalues --    0.19585   0.20030   0.20492   0.21586   0.23401

 Mulliken charges and spin densities:
               1          2
     1  C   -0.441342   0.000255
     2  H    0.141168  -0.000017
     3  H    0.141051   0.000005
     4  H    0.141555   0.000036
     5  C   -0.247000  -0.000209
     6  H    0.130091   0.000035
     7  H    0.130717   0.000120
     8  C   -0.247449   0.002201
     9  H    0.126328  -0.000074
    10  H    0.126895   0.000036
    11  C   -0.252952   0.013717
    12  H    0.134888   0.001451
    13  H    0.128946  -0.001081
    14  C   -0.260985  -0.078353
    15  H    0.141283   0.059288
    16  H    0.138697   0.015277
    17  C   -0.309479   1.089677
    18  H    0.138932  -0.051292
    19  H    0.138657  -0.051071
 Sum of Mulliken charges =   0.00000   1.00000

 Dipole moment (field-independent basis, Debye):
    X=              0.1818    Y=             -0.1168    Z=              0.0909  Tot=              0.2344
 Quadrupole moment (field-independent basis, Debye-Ang):
   XX=            -41.8128   YY=            -40.6030   ZZ=            -40.6038
   XY=              0.6267   XZ=             -0.1441   YZ=              0.5813

  Exact polarizability:  78.634  -0.949  58.941   1.033   1.643  53.718
 Approx polarizability:  84.680  -1.185  82.599   1.480   2.354  78.746

                      1                      2                      3
                      A                      A                      A
 Frequencies --     75.5486                97.1069               123.5973
 Red. masses --      2.2758                 1.4083                 1.2493
 Frc consts  --      0.0077                 0.0078                 0.0112
 IR Inten    --      0.0901                 0.0887                 0.1160

                      4                      5                      6
                      A                      A                      A
 Frequencies --    133.4322               153.6477               249.5554
 Red. masses --      2.8326                 2.0076                 1.1144
 Frc consts  --      0.0297                 0.0279                 0.0409
 IR Inten    --      0.0417                 0.0277                 0.0011

                      7                      8                      9
                      A                      A                      A
 Frequencies --    299.8436               367.8972               443.3408
 Red. masses --      2.5593                 3.4875                 1.4881
 Frc consts  --      0.1356                 0.2781                 0.1723
 IR Inten    --      0.5281                 0.0744                27.5641

                     10                     11                     12
                      A                      A                      A
 Frequencies --    483.5342               734.0158               752.9853
 Red. masses --      2.0201                 1.0826                 1.1271
 Frc consts  --      0.2783                 0.3437                 0.3765
 IR Inten    --     15.9831                 2.7431                 1.4660

                     13                     14                     15
                      A                      A                      A
 Frequencies --    829.0777               897.1848               908.6929
 Red. masses --      1.2324                 1.7556                 1.6127
 Frc consts  --      0.4991                 0.8326                 0.7846
 IR Inten    --      0.6111                 0.8349                 0.8582

                     16                     17                     18
                      A                      A                      A
 Frequencies --    976.1039              1031.1574              1052.9891
 Red. masses --      1.3903                 3.4211                 1.6062
 Frc consts  --      0.7804                 2.1432                 1.0493
 IR Inten    --      0.8986                 0.0896                 1.0603

                     19                     20                     21
                      A                      A                      A
 Frequencies --   1072.8063              1092.0354              1120.2676
 Red. masses --      2.3040                 2.3799                 1.5746
 Frc consts  --      1.5623                 1.6722                 1.1643
 IR Inten    --      0.3114                 0.6783                 0.6533

                     22                     23                     24
                      A                      A                      A
 Frequencies --   1174.5940              1239.4881              1280.8767
 Red. masses --      2.0862                 1.5602                 1.3112
 Frc consts  --      1.6958                 1.4122                 1.2675
 IR Inten    --      0.9509                 0.0840                 3.6744

                     25                     26                     27
                      A                      A                      A
 Frequencies --   1302.0650              1340.0329              1345.9762
 Red. masses --      1.2403                 1.1261                 1.0739
 Frc consts  --      1.2389                 1.1914                 1.1463
 IR Inten    --      0.8244                 0.4053                 0.3210

                     28                     29                     30
                      A                      A                      A
 Frequencies --   1355.6680              1405.5323              1423.9972
 Red. masses --      1.3361                 1.4851                 1.6388
 Frc consts  --      1.4467                 1.7286                 1.9579
 IR Inten    --      0.5634                 1.8982                 0.5756

                     31                     32                     33
                      A                      A                      A
 Frequencies --   1441.2659              1487.4470              1498.6411
 Red. masses --      1.2471                 1.1681                 1.0855
 Frc consts  --      1.5263                 1.5226                 1.4364
 IR Inten    --      1.2381                 0.9022                 0.9314

                     34                     35                     36
                      A                      A                      A
 Frequencies --   1515.1842              1519.4606              1529.9411
 Red. masses --      1.0728                 1.0704                 1.0411
 Frc consts  --      1.4511                 1.4561                 1.4357
 IR Inten    --      0.0392                 0.5007                 5.8025

                     37                     38                     39
                      A                      A                      A
 Frequencies --   1531.8339              1542.4359              2927.3003
 Red. masses --      1.0766                 1.0891                 1.0728
 Frc consts  --      1.4884                 1.5266                 5.4161
 IR Inten    --      0.4225                 3.3632                32.9701

                     40                     41                     42
                      A                      A                      A
 Frequencies --   3011.3441              3019.2862              3025.8594
 Red. masses --      1.0585                 1.0652                 1.0704
 Frc consts  --      5.6555                 5.7210                 5.7743
 IR Inten    --      7.5999                 1.1573                12.7274

                     43                     44                     45
                      A                      A                      A
 Frequencies --   3031.2214              3035.0256              3040.8913
 Red. masses --      1.0707                 1.0980                 1.0359
 Frc consts  --      5.7963                 5.9589                 5.6438
 IR Inten    --     85.1679                 4.8785                41.2647

                     46                     47                     48
                      A                      A                      A
 Frequencies --   3055.2477              3072.9495              3105.5111
 Red. masses --      1.1035                 1.1050                 1.1028
 Frc consts  --      6.0690                 6.1480                 6.2666
 IR Inten    --      0.1106                89.1858                69.0137

                     49                     50                     51
                      A                      A                      A
 Frequencies --   3110.3307              3160.1796              3257.5302
 Red. masses --      1.1019                 1.0511                 1.1181
 Frc consts  --      6.2804                 6.1847                 6.9903
 IR Inten    --     44.0872                20.8571                20.8015

 - Thermochemistry -
 -------------------
 Temperature   298.150 Kelvin.  Pressure   1.00000 Atm.
 Atom     1 has atomic number  6 and mass  12.00000

 Molecular mass:    85.10173 amu.
 Principal axes and moments of inertia in atomic units:
                           1         2         3
     Eigenvalues --   118.051201552.307151611.81768
           X            1.00000  -0.00176  -0.00028
           Y            0.00176   0.99976   0.02190
           Z            0.00024  -0.02190   0.99976
 This molecule is an asymmetric top.
 Rotational symmetry number  1.
 Rotational temperatures (Kelvin)      0.73370     0.05580     0.05374
 Rotational constants (GHZ):          15.28778     1.16262     1.11969
 Zero-point vibrational energy     458659.8 (Joules/Mol)
                                  109.62233 (Kcal/Mol)
 Warning -- explicit consideration of  10 degrees of freedom as
           vibrations may cause significant error
 Vibrational temperatures:    108.70   139.71   177.83   191.98   221.06
          (Kelvin)            359.05   431.41   529.32   637.87   695.70
                             1056.08  1083.38  1192.86  1290.85  1307.40
                             1404.39  1483.60  1515.01  1543.53  1571.19
                             1611.81  1689.98  1783.34  1842.89  1873.38
                             1928.01  1936.56  1950.50  2022.24  2048.81
                             2073.66  2140.10  2156.21  2180.01  2186.16
                             2201.24  2203.96  2219.22  4211.73  4332.65
                             4344.07  4353.53  4361.25  4366.72  4375.16
                             4395.81  4421.28  4468.13  4475.07  4546.79
                             4686.85

 Zero-point correction=                           0.174694 (Hartree/Particle)
 Thermal correction to Energy=                    0.183491
 Thermal correction to Enthalpy=                  0.184435
 Thermal correction to Gibbs Free Energy=         0.141010
 Sum of electronic and zero-point Energies=           -236.238026
 Sum of electronic and thermal Energies=              -236.229230
 Sum of electronic and thermal Enthalpies=            -236.228286
 Sum of electronic and thermal Free Energies=         -236.271711

                     E (Thermal)             CV                S
                      KCal/Mol        Cal/Mol-Kelvin    Cal/Mol-Kelvin
 Total                  115.142             30.158             91.395
 Electronic               0.000              0.000              1.377
 Translational            0.889              2.981             39.237
 Rotational               0.889              2.981             27.182
 Vibrational            113.365             24.196             23.599
 Vibration     1          0.599              1.965              4.003
 Vibration     2          0.603              1.951              3.512
 Vibration     3          0.610              1.929              3.043
 Vibration     4          0.613              1.920              2.896
 Vibration     5          0.619              1.899              2.627
 Vibration     6          0.662              1.764              1.734
 Vibration     7          0.692              1.674              1.418
 Vibration     8          0.740              1.538              1.089
 Vibration     9          0.803              1.376              0.816
 Vibration    10          0.840              1.287              0.701

 Optimization completed.
    -- Stationary point found.
 Normal termination of Gaussian 09 at Sat Nov  7 02:09:57 2015.
