 Gaussian 09, Revision D.01,
 Gaussian 09:  ES64L-G09RevD.01 24-Apr-2013

 ----------------------------------------------
 #p B3LYP/6-31G(d) opt=tight int=ultrafine freq
 ----------------------------------------------

 ---------------------------------------------
 using B3LYP/6-31G(d) to do opt and freq calc.
 ---------------------------------------------
 Symbolic Z-matrix:
 Charge =  0 Multiplicity = 2

 SCF Done:  E(UB3LYP) =  -236.408612989     A.U. after   13 cycles
 SCF Done:  E(UB3LYP) =  -236.416684067     A.U. after   12 cycles
 SCF Done:  E(UB3LYP) =  -236.418976720     A.U. after   12 cycles
 SCF Done:  E(UB3LYP) =  -236.419197530     A.U. after   10 cycles
 SCF Done:  E(UB3LYP) =  -236.419226166     A.U. after    9 cycles
 SCF Done:  E(UB3LYP) =  -236.419232055     A.U. after    9 cycles
 SCF Done:  E(UB3LYP) =  -236.419233388     A.U. after    8 cycles
 SCF Done:  E(UB3LYP) =  -236.419234236     A.U. after    8 cycles
 SCF Done:  E(UB3LYP) =  -236.419234453     A.U. after    7 cycles
 SCF Done:  E(UB3LYP) =  -236.419234476     A.U. after    6 cycles
 SCF Done:  E(UB3LYP) =  -236.419234477     A.U. after    5 cycles
 SCF Done:  E(UB3LYP) =  -236.419234477     A.U. after    5 cycles
 SCF Done:  E(UB3LYP) =  -236.419234477     A.U. after    5 cycles
 SCF Done:  E(UB3LYP) =  -236.419234477     A.U. after    3 cycles
 Optimization completed.
    -- Stationary point found.
 Normal termination of Gaussian 09 at Sat Nov  7 02:06:58 2015.

 --------------------------------------------------------------------
 #P Geom=AllCheck Guess=TCheck SCRF=Check GenChk UB3LYP/6-31G(d) Freq
 --------------------------------------------------------------------

 Structure from the checkpoint file:  "/state/partition1/Gau-5122.chk"
 ---------------------------------------------
 using B3LYP/6-31G(d) to do opt and freq calc.
 ---------------------------------------------
 Charge =  0 Multiplicity = 2

                         Standard orientation:
 ---------------------------------------------------------------------
 Center     Atomic      Atomic             Coordinates (Angstroms)
 Number     Number       Type             X           Y           Z
 ---------------------------------------------------------------------
      1          6           0        3.277760    0.087622   -0.136458
      2          1           0        3.667851    0.605840    0.759418
      3          1           0        3.282702    0.832073   -0.945046
      4          1           0        4.004820   -0.692518   -0.389848
      5          6           0        1.912503   -0.474433    0.084117
      6          1           0        1.825624   -1.486087    0.478057
      7          6           0        0.699200    0.398591    0.118919
      8          1           0        0.768713    1.159445   -0.675533
      9          1           0        0.672150    0.980309    1.062591
     10          6           0       -0.625447   -0.368949   -0.017634
     11          1           0       -0.686299   -1.125452    0.778802
     12          1           0       -0.623023   -0.924949   -0.965804
     13          6           0       -1.864520    0.532157    0.044476
     14          1           0       -1.802380    1.288764   -0.750788
     15          1           0       -1.860697    1.088272    0.992952
     16          6           0       -3.180533   -0.240811   -0.088982
     17          1           0       -3.288305   -0.981452    0.713134
     18          1           0       -4.046036    0.429958   -0.041029
     19          1           0       -3.228892   -0.779262   -1.043536
 ---------------------------------------------------------------------

 SCF Done:  E(UB3LYP) =  -236.419234477     A.U. after    1 cycles

 The electronic state is 2-A.
 Alpha  occ. eigenvalues --  -10.18227 -10.17846 -10.17671 -10.17537 -10.17507
 Alpha  occ. eigenvalues --  -10.17040  -0.80056  -0.76195  -0.70773  -0.63729
 Alpha  occ. eigenvalues --   -0.57545  -0.56194  -0.46828  -0.43921  -0.42493
 Alpha  occ. eigenvalues --   -0.41866  -0.39542  -0.38665  -0.37692  -0.35025
 Alpha  occ. eigenvalues --   -0.34255  -0.32558  -0.32052  -0.31400  -0.17727
 Alpha virt. eigenvalues --    0.09630   0.11254   0.12240   0.13339   0.13989
 Alpha virt. eigenvalues --    0.15817   0.16971   0.17705   0.18207   0.19073
 Alpha virt. eigenvalues --    0.19439   0.20002   0.21015   0.23994   0.25578

  Beta  occ. eigenvalues --  -10.17935 -10.17670 -10.17629 -10.17482 -10.17040
  Beta  occ. eigenvalues --  -10.16854  -0.79515  -0.75163  -0.70531  -0.63383
  Beta  occ. eigenvalues --   -0.57434  -0.54364  -0.46534  -0.43570  -0.41975
  Beta  occ. eigenvalues --   -0.41126  -0.38888  -0.38247  -0.37524  -0.34675
  Beta  occ. eigenvalues --   -0.33927  -0.32417  -0.31953  -0.31135
  Beta virt. eigenvalues --   -0.02676   0.09686   0.11389   0.12518   0.13506
  Beta virt. eigenvalues --    0.14125   0.15952   0.17509   0.18023   0.18483
  Beta virt. eigenvalues --    0.19258   0.19907   0.20115   0.21452   0.24116

 Mulliken charges and spin densities:
               1          2
     1  C   -0.474177  -0.082275
     2  H    0.148478   0.064106
     3  H    0.148036   0.020994
     4  H    0.150179   0.008786
     5  C   -0.094914   1.024844
     6  H    0.122129  -0.048773
     7  C   -0.272195  -0.078321
     8  H    0.132446   0.019583
     9  H    0.134014   0.059657
    10  C   -0.249299   0.009785
    11  H    0.127801  -0.000893
    12  H    0.133401   0.001215
    13  C   -0.248266   0.001246
    14  H    0.130162   0.000056
    15  H    0.129744  -0.000031
    16  C   -0.441456  -0.000322
    17  H    0.141036   0.000044
    18  H    0.141254   0.000172
    19  H    0.141627   0.000127
 Sum of Mulliken charges =   0.00000   1.00000

 Dipole moment (field-independent basis, Debye):
    X=              0.0373    Y=              0.1471    Z=              0.1400  Tot=              0.2064
 Quadrupole moment (field-independent basis, Debye-Ang):
   XX=            -40.6480   YY=            -40.5143   ZZ=            -40.6183
   XY=             -0.0542   XZ=              0.1459   YZ=             -0.4424

  Exact polarizability:  80.001  -0.134  59.688  -0.497  -0.830  54.107
 Approx polarizability:  85.709  -0.662  84.079  -0.822  -1.406  78.314

                      1                      2                      3
                      A                      A                      A
 Frequencies --     47.2369                91.6485               113.2712
 Red. masses --      2.1964                 1.3576                 1.8836
 Frc consts  --      0.0029                 0.0067                 0.0142
 IR Inten    --      0.0467                 0.0285                 0.0389

                      4                      5                      6
                      A                      A                      A
 Frequencies --    123.0894               148.4607               249.2845
 Red. masses --      1.8262                 1.9199                 1.1159
 Frc consts  --      0.0163                 0.0249                 0.0409
 IR Inten    --      0.0033                 0.1692                 0.0166

                      7                      8                      9
                      A                      A                      A
 Frequencies --    302.2227               363.5643               415.2925
 Red. masses --      2.4986                 3.1858                 1.3652
 Frc consts  --      0.1345                 0.2481                 0.1387
 IR Inten    --      0.5237                 1.1722                17.0271

                     10                     11                     12
                      A                      A                      A
 Frequencies --    465.0797               738.0248               790.1646
 Red. masses --      2.5276                 1.0813                 1.1826
 Frc consts  --      0.3221                 0.3470                 0.4350
 IR Inten    --      0.1899                 2.6851                 1.0374

                     13                     14                     15
                      A                      A                      A
 Frequencies --    900.3308               916.3461               928.5805
 Red. masses --      2.2463                 1.6525                 1.2377
 Frc consts  --      1.0728                 0.8175                 0.6288
 IR Inten    --      2.2676                 0.8586                 0.6696

                     16                     17                     18
                      A                      A                      A
 Frequencies --    999.8935              1026.2982              1067.1911
 Red. masses --      1.2816                 3.5272                 2.0835
 Frc consts  --      0.7549                 2.1889                 1.3981
 IR Inten    --      1.0058                 0.0644                 0.5427

                     19                     20                     21
                      A                      A                      A
 Frequencies --   1076.5811              1117.3831              1147.0025
 Red. masses --      1.6841                 1.5215                 2.1302
 Frc consts  --      1.1500                 1.1192                 1.6512
 IR Inten    --      1.5676                 0.5995                 0.7249

                     22                     23                     24
                      A                      A                      A
 Frequencies --   1181.3680              1248.4650              1282.5005
 Red. masses --      2.2639                 1.4721                 1.3093
 Frc consts  --      1.8615                 1.3519                 1.2688
 IR Inten    --      0.6557                 0.0771                 8.9609

                     25                     26                     27
                      A                      A                      A
 Frequencies --   1319.6946              1343.4334              1354.7120
 Red. masses --      1.1867                 1.0693                 1.3415
 Frc consts  --      1.2177                 1.1371                 1.4505
 IR Inten    --      0.2913                 0.2120                 0.4653

                     28                     29                     30
                      A                      A                      A
 Frequencies --   1412.0482              1430.9455              1439.9588
 Red. masses --      1.4863                 1.5142                 1.3313
 Frc consts  --      1.7461                 1.8268                 1.6264
 IR Inten    --      3.2457                 0.5387                 0.7359

                     31                     32                     33
                      A                      A                      A
 Frequencies --   1442.4633              1499.1417              1505.2632
 Red. masses --      1.3588                 1.0744                 1.0637
 Frc consts  --      1.6658                 1.4226                 1.4200
 IR Inten    --      2.9291                 0.1845                 5.6974

                     34                     35                     36
                      A                      A                      A
 Frequencies --   1516.6175              1517.2093              1527.4848
 Red. masses --      1.0670                 1.0445                 1.0707
 Frc consts  --      1.4461                 1.4166                 1.4719
 IR Inten    --      0.3692                 3.2372                 0.2927

                     37                     38                     39
                      A                      A                      A
 Frequencies --   1529.9404              1541.0930              2916.1602
 Red. masses --      1.0411                 1.0838                 1.0728
 Frc consts  --      1.4357                 1.5166                 5.3750
 IR Inten    --      5.7385                 3.2148                36.5999

                     40                     41                     42
                      A                      A                      A
 Frequencies --   2955.7039              3003.8680              3018.1685
 Red. masses --      1.0610                 1.0825                 1.0593
 Frc consts  --      5.4610                 5.7549                 5.6854
 IR Inten    --     47.5746                14.6202                 2.2745

                     43                     44                     45
                      A                      A                      A
 Frequencies --   3026.7100              3040.9951              3043.6162
 Red. masses --      1.0609                 1.0379                 1.0945
 Frc consts  --      5.7264                 5.6553                 5.9739
 IR Inten    --     63.9762                38.3861                 9.7235

                     46                     47                     48
                      A                      A                      A
 Frequencies --   3044.0552              3067.8089              3101.0145
 Red. masses --      1.0766                 1.1049                 1.0980
 Frc consts  --      5.8778                 6.1268                 6.2209
 IR Inten    --     24.7007                55.6042                26.7395

                     49                     50                     51
                      A                      A                      A
 Frequencies --   3105.6863              3110.2438              3163.7393
 Red. masses --      1.1028                 1.1019                 1.0873
 Frc consts  --      6.2672                 6.2803                 6.4122
 IR Inten    --     65.4655                43.5085                31.3079

 - Thermochemistry -
 -------------------
 Temperature   298.150 Kelvin.  Pressure   1.00000 Atm.
 Atom     1 has atomic number  6 and mass  12.00000

 Molecular mass:    85.10173 amu.
 Principal axes and moments of inertia in atomic units:
                           1         2         3
     Eigenvalues --   114.557601591.915361643.74645
           X            0.99999   0.00483  -0.00020
           Y           -0.00483   0.99980  -0.01936
           Z            0.00011   0.01936   0.99981
 This molecule is an asymmetric top.
 Rotational symmetry number  1.
 Rotational temperatures (Kelvin)      0.75607     0.05441     0.05269
 Rotational constants (GHZ):          15.75401     1.13369     1.09794
 Zero-point vibrational energy     458869.9 (Joules/Mol)
                                  109.67254 (Kcal/Mol)
 Warning -- explicit consideration of  10 degrees of freedom as
           vibrations may cause significant error
 Vibrational temperatures:     67.96   131.86   162.97   177.10   213.60
          (Kelvin)            358.66   434.83   523.09   597.51   669.15
                             1061.85  1136.87  1295.37  1318.42  1336.02
                             1438.62  1476.61  1535.45  1548.96  1607.66
                             1650.28  1699.72  1796.26  1845.23  1898.74
                             1932.90  1949.13  2031.62  2058.81  2071.78
                             2075.38  2156.93  2165.74  2182.07  2182.92
                             2197.71  2201.24  2217.29  4195.70  4252.59
                             4321.89  4342.47  4354.76  4375.31  4379.08
                             4379.71  4413.89  4461.66  4468.38  4474.94
                             4551.91

 Zero-point correction=                           0.174774 (Hartree/Particle)
 Thermal correction to Energy=                    0.183676
 Thermal correction to Enthalpy=                  0.184620
 Thermal correction to Gibbs Free Energy=         0.140506
 Sum of electronic and zero-point Energies=           -236.244460
 Sum of electronic and thermal Energies=              -236.235559
 Sum of electronic and thermal Enthalpies=            -236.234615
 Sum of electronic and thermal Free Energies=         -236.278729

                     E (Thermal)             CV                S
                      KCal/Mol        Cal/Mol-Kelvin    Cal/Mol-Kelvin
 Total                  115.258             29.935             92.846
 Electronic               0.000              0.000              1.377
 Translational            0.889              2.981             39.237
 Rotational               0.889              2.981             27.197
 Vibrational            113.481             23.974             25.034
 Vibration     1          0.595              1.979              4.930
 Vibration     2          0.602              1.955              3.625
 Vibration     3          0.607              1.938              3.212
 Vibration     4          0.610              1.930              3.051
 Vibration     5          0.618              1.904              2.692
 Vibration     6          0.662              1.764              1.736
 Vibration     7          0.694              1.669              1.405
 Vibration     8          0.737              1.547              1.107
 Vibration     9          0.779              1.437              0.908
 Vibration    10          0.823              1.328              0.751

 Optimization completed.
    -- Stationary point found.
 Normal termination of Gaussian 09 at Sat Nov  7 02:13:14 2015.
