 Gaussian 09, Revision A.01,
 Gaussian 09:  EM64L-G09RevA.01  8-May-2009

 ----------
 #p PM6 opt
 ----------

 ----------------------------------
 using PM6 to do opt and freq calc.
 ----------------------------------
 Symbolic Z-matrix:
 Charge =  0 Multiplicity = 1

 SCF Done:  E(RPM6) = -0.538414207122E-01 A.U. after   13 cycles
 SCF Done:  E(RPM6) = -0.561136491596E-01 A.U. after   11 cycles
 SCF Done:  E(RPM6) = -0.562755413664E-01 A.U. after   11 cycles
 SCF Done:  E(RPM6) = -0.563134078451E-01 A.U. after   10 cycles
 SCF Done:  E(RPM6) = -0.563306929165E-01 A.U. after   10 cycles
 SCF Done:  E(RPM6) = -0.563388817739E-01 A.U. after   10 cycles
 SCF Done:  E(RPM6) = -0.563416791279E-01 A.U. after    9 cycles
 SCF Done:  E(RPM6) = -0.563429467663E-01 A.U. after    9 cycles
 SCF Done:  E(RPM6) = -0.563431809638E-01 A.U. after    8 cycles
 SCF Done:  E(RPM6) = -0.563432312914E-01 A.U. after    8 cycles
 Optimization completed.
    -- Stationary point found.

                         Standard orientation:
 ---------------------------------------------------------------------
 Center     Atomic      Atomic             Coordinates (Angstroms)
 Number     Number       Type             X           Y           Z
 ---------------------------------------------------------------------
      1          6           0        2.586275    0.857047   -0.258405
      2          1           0        1.908345    1.708510   -0.128149
      3          1           0        2.731643    0.719547   -1.335749
      4          1           0        3.553552    1.136617    0.172754
      5          6           0        2.031448   -0.405316    0.398205
      6          1           0        2.758570   -1.232740    0.276488
      7          1           0        1.937153   -0.247746    1.490530
      8          6           0        0.677982   -0.836998   -0.185203
      9          1           0        0.465222   -1.879412    0.122171
     10          1           0        0.735822   -0.855807   -1.290529
     11          6           0       -0.471406    0.076140    0.261357
     12          1           0       -0.264351    1.118662   -0.048167
     13          1           0       -0.528008    0.098249    1.366324
     14          6           0       -1.815508   -0.383269   -0.320932
     15          1           0       -2.023052   -1.426262   -0.011760
     16          1           0       -1.759632   -0.401424   -1.426889
     17          6           0       -2.962481    0.522781    0.121825
     18          1           0       -2.806687    1.557942   -0.202350
     19          1           0       -3.917107    0.187297   -0.298163
     20          1           0       -3.069332    0.534247    1.212412
 ---------------------------------------------------------------------

 The electronic state is 1-A.
 Alpha  occ. eigenvalues --   -1.05608  -1.00007  -0.90946  -0.82318  -0.74682
 Alpha  occ. eigenvalues --   -0.72445  -0.59227  -0.56599  -0.54558  -0.51884
 Alpha  occ. eigenvalues --   -0.51560  -0.48744  -0.46900  -0.45624  -0.44065
 Alpha  occ. eigenvalues --   -0.42743  -0.41696  -0.40823  -0.40364
 Alpha virt. eigenvalues --    0.15266   0.15857   0.16863   0.17536   0.18484
 Alpha virt. eigenvalues --    0.20532   0.21137   0.21651   0.22086   0.22232
 Alpha virt. eigenvalues --    0.22768   0.22980   0.23596   0.24092   0.24463

 Mulliken atomic charges:
              1
     1  C   -0.459664
     2  H    0.147257
     3  H    0.145665
     4  H    0.141569
     5  C   -0.220344
     6  H    0.122451
     7  H    0.126547
     8  C   -0.266597
     9  H    0.126954
    10  H    0.132727
    11  C   -0.259831
    12  H    0.133165
    13  H    0.130618
    14  C   -0.224037
    15  H    0.125289
    16  H    0.125764
    17  C   -0.463672
    18  H    0.146280
    19  H    0.143566
    20  H    0.146292
 Sum of Mulliken atomic charges =   0.00000

 Dipole moment (field-independent basis, Debye):
    X=             -0.0069    Y=              0.0669    Z=             -0.0067  Tot=              0.0676
 N-N= 1.627606016268D+02 E-N=-2.465286472145D+02  KE=-5.608935949371D+01
 Leave Link  601 at Mon Sep 14 19:14:03 2015, MaxMem=  402653184 cpu:       0.0
 (Enter /share/apps/g09/l9999.exe)
 1\1\GINC-COMPUTE-0-12\FOpt\RPM6\ZDO\C6H14\HETANJIN\14-Sep-2015\0\\#p P
 M6 opt\\using PM6 to do opt and freq calc.\\0,1\C,1.883232302,1.840653
 6975,-0.8550938144\H,0.9793317212,2.4589610776,-0.9020450927\H,2.04874
 64653,1.4307864468,-1.8577512351\H,2.7246069962,2.5033443245,-0.625722
 2691\C,1.7500233708,0.7334238167,0.1883754583\H,2.6935256222,0.1536807
 771,0.231439534\H,1.62720437,1.1807442087,1.194215487\C,0.5853802049,-
 0.2246055421,-0.1020895194\H,0.7057541805,-1.1396183995,0.5099855366\H

 Normal termination of Gaussian 09 at Mon Sep 14 19:14:06 2015.
