 Gaussian 09, Revision A.01,
 Gaussian 09:  EM64L-G09RevA.01  8-May-2009

 ----------
 #p PM6 opt
 ----------

 ----------------------------------
 using PM6 to do opt and freq calc.
 ----------------------------------
 Symbolic Z-matrix:
 Charge =  0 Multiplicity = 1

 SCF Done:  E(RPM6) = -0.541695043411E-01 A.U. after   12 cycles
 SCF Done:  E(RPM6) = -0.573935731777E-01 A.U. after   11 cycles
 SCF Done:  E(RPM6) = -0.577857484365E-01 A.U. after   14 cycles
 SCF Done:  E(RPM6) = -0.578463022634E-01 A.U. after   14 cycles
 SCF Done:  E(RPM6) = -0.578574739996E-01 A.U. after   14 cycles
 SCF Done:  E(RPM6) = -0.578603877897E-01 A.U. after   14 cycles
 SCF Done:  E(RPM6) = -0.578607494120E-01 A.U. after   14 cycles
 Optimization completed.
    -- Stationary point found.

                         Standard orientation:
 ---------------------------------------------------------------------
 Center     Atomic      Atomic             Coordinates (Angstroms)
 Number     Number       Type             X           Y           Z
 ---------------------------------------------------------------------
      1          6           0       -1.502015    1.252488    0.056688
      2          1           0       -1.013483    2.167671   -0.293956
      3          1           0       -1.619601    1.334980    1.142261
      4          1           0       -2.506074    1.232116   -0.380201
      5          6           0       -0.703201    0.000030   -0.332395
      6          1           0       -0.565437    0.000145   -1.441156
      7          6           0        0.703201   -0.000042    0.332395
      8          1           0        0.565437   -0.000171    1.441156
      9          6           0        1.502036   -1.252484   -0.056704
     10          1           0        1.619610   -1.334969   -1.142279
     11          1           0        2.506101   -1.232092    0.380171
     12          1           0        1.013530   -2.167679    0.293943
     13          6           0       -1.502037   -1.252494    0.056431
     14          1           0       -1.013534   -2.167615   -0.294418
     15          1           0       -1.619608   -1.335221    1.141988
     16          1           0       -2.506103   -1.232006   -0.380437
     17          6           0        1.502016    1.252498   -0.056415
     18          1           0        1.619603    1.335230   -1.141969
     19          1           0        1.013486    2.167607    0.294428
     20          1           0        2.506075    1.232032    0.380470
 ---------------------------------------------------------------------

 The electronic state is 1-A.
 Alpha  occ. eigenvalues --   -1.06842  -0.96630  -0.90897  -0.84910  -0.77080
 Alpha  occ. eigenvalues --   -0.69609  -0.56958  -0.56760  -0.53607  -0.52885
 Alpha  occ. eigenvalues --   -0.48757  -0.48593  -0.47701  -0.46482  -0.45325
 Alpha  occ. eigenvalues --   -0.43309  -0.41343  -0.41177  -0.39581
 Alpha virt. eigenvalues --    0.15057   0.15911   0.17121   0.17815   0.18456
 Alpha virt. eigenvalues --    0.21810   0.22025   0.22122   0.22294   0.22451
 Alpha virt. eigenvalues --    0.22452   0.22658   0.22848   0.23664   0.24288

 Mulliken atomic charges:
              1
     1  C   -0.494865
     2  H    0.148179
     3  H    0.149536
     4  H    0.147162
     5  C   -0.013629
     6  H    0.113604
     7  C   -0.013629
     8  H    0.113604
     9  C   -0.494865
    10  H    0.149536
    11  H    0.147162
    12  H    0.148179
    13  C   -0.494865
    14  H    0.148179
    15  H    0.149536
    16  H    0.147162
    17  C   -0.494865
    18  H    0.149536
    19  H    0.148179
    20  H    0.147162
 Sum of Mulliken atomic charges =   0.00000

 Dipole moment (field-independent basis, Debye):
    X=              0.0000    Y=              0.0000    Z=              0.0000  Tot=              0.0000
 N-N= 1.699947936051D+02 E-N=-2.607680814355D+02  KE=-5.636832493584D+01
 Leave Link  601 at Mon Sep 14 19:13:51 2015, MaxMem=  402653184 cpu:       0.0
 (Enter /share/apps/g09/l9999.exe)
 1\1\GINC-COMPUTE-0-11\FOpt\RPM6\ZDO\C6H14\HETANJIN\14-Sep-2015\0\\#p P
 M6 opt\\using PM6 to do opt and freq calc.\\0,1\C,-1.5021946193,-1.252
 4197776,-0.0566381458\H,-1.0137616545,-2.1676553689,0.294005621\H,-1.6
 19790193,-1.3348995135,-1.1422109036\H,-2.5062514036,-1.231940221,0.38
 02509765\C,-0.7032463991,-0.0000476552,0.3324452352\H,-0.5654824225,-0
 .0001777842,1.4412056064\C,0.7031563355,-0.0001271564,-0.3323452901\H,
 0.565392509,0.000015989,-1.4411056391\C,1.5021259134,1.2522279411,0.05

 Normal termination of Gaussian 09 at Mon Sep 14 19:13:51 2015.
