 Gaussian 09, Revision A.01,
 Gaussian 09:  EM64L-G09RevA.01  8-May-2009

 ----------
 #p PM6 opt
 ----------

 ----------------------------------
 using PM6 to do opt and freq calc.
 ----------------------------------
 Symbolic Z-matrix:
 Charge =  0 Multiplicity = 1

 SCF Done:  E(RPM6) = -0.483129980631E-01 A.U. after   12 cycles
 SCF Done:  E(RPM6) = -0.551565501663E-01 A.U. after   11 cycles
 SCF Done:  E(RPM6) = -0.572630113519E-01 A.U. after   10 cycles
 SCF Done:  E(RPM6) = -0.576258119112E-01 A.U. after   11 cycles
 SCF Done:  E(RPM6) = -0.578203653114E-01 A.U. after   11 cycles
 SCF Done:  E(RPM6) = -0.578575213995E-01 A.U. after   14 cycles
 SCF Done:  E(RPM6) = -0.578606277447E-01 A.U. after   14 cycles
 SCF Done:  E(RPM6) = -0.578607533654E-01 A.U. after   15 cycles
 SCF Done:  E(RPM6) = -0.578607971786E-01 A.U. after   14 cycles
 Optimization completed.
    -- Stationary point found.

                         Standard orientation:
 ---------------------------------------------------------------------
 Center     Atomic      Atomic             Coordinates (Angstroms)
 Number     Number       Type             X           Y           Z
 ---------------------------------------------------------------------
      1          6           0       -1.502213   -1.252399   -0.056871
      2          1           0       -1.013908   -2.167678    0.293887
      3          1           0       -1.619611   -1.334740   -1.142426
      4          1           0       -2.506196   -1.231863    0.380117
      5          6           0       -0.703140   -0.000099    0.332352
      6          1           0       -0.565629   -0.000309    1.441218
      7          6           0        0.703140   -0.000108   -0.332352
      8          1           0        0.565628   -0.000298   -1.441217
      9          6           0        1.501970    1.252477    0.056407
     10          1           0        1.619016    1.335452    1.141950
     11          1           0        2.506094    1.231786   -0.380252
     12          1           0        1.013692    2.167501   -0.295040
     13          6           0       -1.501956    1.252490   -0.056406
     14          1           0       -1.013269    2.167572    0.294282
     15          1           0       -1.619723    1.334990   -1.141911
     16          1           0       -2.505779    1.232184    0.380972
     17          6           0        1.502199   -1.252413    0.056870
     18          1           0        1.620315   -1.334282    1.142385
     19          1           0        1.013486   -2.167748   -0.293134
     20          1           0        2.505881   -1.232260   -0.380834
 ---------------------------------------------------------------------

 The electronic state is 1-A.
 Alpha  occ. eigenvalues --   -1.06843  -0.96633  -0.90896  -0.84910  -0.77081
 Alpha  occ. eigenvalues --   -0.69608  -0.56960  -0.56760  -0.53610  -0.52883
 Alpha  occ. eigenvalues --   -0.48758  -0.48593  -0.47704  -0.46481  -0.45323
 Alpha  occ. eigenvalues --   -0.43311  -0.41341  -0.41176  -0.39585
 Alpha virt. eigenvalues --    0.15055   0.15912   0.17121   0.17813   0.18456
 Alpha virt. eigenvalues --    0.21811   0.22025   0.22121   0.22296   0.22452
 Alpha virt. eigenvalues --    0.22453   0.22658   0.22848   0.23663   0.24287

 Mulliken atomic charges:
              1
     1  C   -0.494860
     2  H    0.148170
     3  H    0.149542
     4  H    0.147164
     5  C   -0.013647
     6  H    0.113610
     7  C   -0.013647
     8  H    0.113610
     9  C   -0.494859
    10  H    0.149542
    11  H    0.147164
    12  H    0.148172
    13  C   -0.494861
    14  H    0.148178
    15  H    0.149543
    16  H    0.147159
    17  C   -0.494861
    18  H    0.149544
    19  H    0.148176
    20  H    0.147159
 Sum of Mulliken atomic charges =   0.00000

 Dipole moment (field-independent basis, Debye):
    X=              0.0000    Y=              0.0001    Z=              0.0000  Tot=              0.0001
 N-N= 1.699955313949D+02 E-N=-2.607692547810D+02  KE=-5.636841919160D+01
 Leave Link  601 at Sun Sep 13 11:20:44 2015, MaxMem=  671088640 cpu:       0.0
 (Enter /share/apps/g09/l9999.exe)
 1\1\GINC-COMPUTE-0-14\FOpt\RPM6\ZDO\C6H14\HETANJIN\13-Sep-2015\0\\#p P
 M6 opt\\using PM6 to do opt and freq calc.\\0,1\C,-3.9645350002,0.8865
 933126,-0.0516383247\H,-3.6869763973,-0.1727177209,-0.0571257289\H,-3.
 5509788671,1.342063492,-0.9574579272\H,-5.0557854116,0.9369168268,-0.1
 291076877\C,-3.466111216,1.5954267859,1.2161931604\H,-3.8717344928,1.0
 538046851,2.1053545222\C,-1.9130630216,1.5737626017,1.3000143205\H,-1.
 5074341395,2.1150414859,0.4106465954\C,-1.4146370672,2.2831098662,2.56

 Normal termination of Gaussian 09 at Sun Sep 13 11:20:47 2015.
