 Gaussian 09, Revision D.01,
 Gaussian 09:  ES64L-G09RevD.01 24-Apr-2013

 ----------------------------------------------
 #p B3LYP/6-31G(d) opt=tight int=ultrafine freq
 ----------------------------------------------

 ---------------------------------------------
 using B3LYP/6-31G(d) to do opt and freq calc.
 ---------------------------------------------
 Symbolic Z-matrix:
 Charge =  0 Multiplicity = 2

 SCF Done:  E(UB3LYP) =  -236.400283508     A.U. after   14 cycles
 SCF Done:  E(UB3LYP) =  -236.408078009     A.U. after   13 cycles
 SCF Done:  E(UB3LYP) =  -236.409903616     A.U. after   13 cycles
 SCF Done:  E(UB3LYP) =  -236.410024404     A.U. after   10 cycles
 SCF Done:  E(UB3LYP) =  -236.410050162     A.U. after   10 cycles
 SCF Done:  E(UB3LYP) =  -236.410055536     A.U. after   10 cycles
 SCF Done:  E(UB3LYP) =  -236.410057121     A.U. after    8 cycles
 SCF Done:  E(UB3LYP) =  -236.410057132     A.U. after    7 cycles
 SCF Done:  E(UB3LYP) =  -236.410057229     A.U. after    7 cycles
 SCF Done:  E(UB3LYP) =  -236.410057411     A.U. after    7 cycles
 SCF Done:  E(UB3LYP) =  -236.410057533     A.U. after    6 cycles
 SCF Done:  E(UB3LYP) =  -236.410057553     A.U. after    4 cycles
 SCF Done:  E(UB3LYP) =  -236.410057551     A.U. after    5 cycles
 SCF Done:  E(UB3LYP) =  -236.410057553     A.U. after    4 cycles
 Optimization completed.
    -- Stationary point found.
 Normal termination of Gaussian 09 at Sat Nov  7 02:22:31 2015.

 --------------------------------------------------------------------
 #P Geom=AllCheck Guess=TCheck SCRF=Check GenChk UB3LYP/6-31G(d) Freq
 --------------------------------------------------------------------

 Structure from the checkpoint file:  "/state/partition1/Gau-3925.chk"
 ---------------------------------------------
 using B3LYP/6-31G(d) to do opt and freq calc.
 ---------------------------------------------
 Charge =  0 Multiplicity = 2

                         Standard orientation:
 ---------------------------------------------------------------------
 Center     Atomic      Atomic             Coordinates (Angstroms)
 Number     Number       Type             X           Y           Z
 ---------------------------------------------------------------------
      1          6           0       -1.584889   -0.722854   -0.784154
      2          1           0       -1.470325   -1.747608   -1.127751
      3          1           0       -2.583082   -0.293513   -0.809583
      4          6           0       -0.473707   -0.030682   -0.045358
      5          6           0        0.881641   -0.540653   -0.611963
      6          1           0        0.895267   -0.333639   -1.690758
      7          1           0        0.899137   -1.635608   -0.513846
      8          6           0        2.155710    0.031759    0.021075
      9          1           0        2.225161   -0.199198    1.089768
     10          1           0        3.042007   -0.395063   -0.462420
     11          1           0        2.216795    1.119983   -0.090718
     12          6           0       -0.613056    1.496207   -0.230572
     13          1           0        0.135317    2.044577    0.352274
     14          1           0       -0.498690    1.777144   -1.284100
     15          1           0       -1.601581    1.836711    0.100797
     16          6           0       -0.594378   -0.369144    1.465991
     17          1           0       -1.576787   -0.072405    1.850539
     18          1           0       -0.477503   -1.445346    1.639185
     19          1           0        0.166357    0.156168    2.056494
 ---------------------------------------------------------------------

 SCF Done:  E(UB3LYP) =  -236.410057553     A.U. after    1 cycles

 The electronic state is 2-A.
 Alpha  occ. eigenvalues --  -10.19561 -10.18079 -10.17657 -10.17124 -10.17073
 Alpha  occ. eigenvalues --  -10.16942  -0.81894  -0.73167  -0.67928  -0.67110
 Alpha  occ. eigenvalues --   -0.61614  -0.52379  -0.45656  -0.44799  -0.43585
 Alpha  occ. eigenvalues --   -0.41359  -0.39568  -0.37987  -0.37270  -0.36075
 Alpha  occ. eigenvalues --   -0.34351  -0.32327  -0.32077  -0.30804  -0.19623
 Alpha virt. eigenvalues --    0.08336   0.12727   0.13654   0.13884   0.14598
 Alpha virt. eigenvalues --    0.15268   0.16307   0.17461   0.18108   0.19291
 Alpha virt. eigenvalues --    0.19652   0.21952   0.22660   0.24087   0.25498

  Beta  occ. eigenvalues --  -10.19642 -10.17627 -10.17069 -10.16996 -10.16906
  Beta  occ. eigenvalues --  -10.16699  -0.81348  -0.72906  -0.67732  -0.65256
  Beta  occ. eigenvalues --   -0.60593  -0.51953  -0.45368  -0.44594  -0.43265
  Beta  occ. eigenvalues --   -0.40905  -0.39098  -0.37906  -0.37165  -0.35816
  Beta  occ. eigenvalues --   -0.34245  -0.31777  -0.31587  -0.30698
  Beta virt. eigenvalues --   -0.03727   0.08412   0.13017   0.14134   0.14219
  Beta virt. eigenvalues --    0.14911   0.15330   0.16606   0.17684   0.18247
  Beta virt. eigenvalues --    0.19403   0.19939   0.22112   0.22732   0.24318

 Mulliken charges and spin densities:
               1          2
     1  C   -0.314771   1.089192
     2  H    0.135217  -0.050676
     3  H    0.134201  -0.050377
     4  C    0.109267  -0.066119
     5  C   -0.252298   0.009568
     6  H    0.132713   0.000926
     7  H    0.126040  -0.000721
     8  C   -0.455108   0.001399
     9  H    0.145614   0.000265
    10  H    0.142815   0.000429
    11  H    0.146099   0.000050
    12  C   -0.451815   0.010891
    13  H    0.141379   0.002621
    14  H    0.143025   0.000664
    15  H    0.137886  -0.000764
    16  C   -0.441147   0.037225
    17  H    0.139991  -0.000905
    18  H    0.139301  -0.000777
    19  H    0.141593   0.017107
 Sum of Mulliken charges =   0.00000   1.00000

 Dipole moment (field-independent basis, Debye):
    X=              0.0997    Y=             -0.0047    Z=              0.1649  Tot=              0.1927
 Quadrupole moment (field-independent basis, Debye-Ang):
   XX=            -40.6221   YY=            -40.4775   ZZ=            -41.5481
   XY=             -0.3295   XZ=             -0.2788   YZ=              0.2247

  Exact polarizability:  68.200  -0.294  61.143   1.274   1.644  58.801
 Approx polarizability:  86.162  -0.550  83.776   2.114   2.730  80.917

                      1                      2                      3
                      A                      A                      A
 Frequencies --     89.6932               118.0021               216.1710
 Red. masses --      1.6634                 1.0407                 1.0425
 Frc consts  --      0.0079                 0.0085                 0.0287
 IR Inten    --      0.0267                 0.4138                 0.0051

                      4                      5                      6
                      A                      A                      A
 Frequencies --    255.8222               272.5981               276.1475
 Red. masses --      2.3732                 1.1176                 1.1142
 Frc consts  --      0.0915                 0.0489                 0.0501
 IR Inten    --      0.2643                 0.0756                 0.1696

                      7                      8                      9
                      A                      A                      A
 Frequencies --    312.3366               351.9476               387.6228
 Red. masses --      1.8295                 2.2048                 1.7564
 Frc consts  --      0.1052                 0.1609                 0.1555
 IR Inten    --      2.9692                 0.2999                 4.9005

                     10                     11                     12
                      A                      A                      A
 Frequencies --    408.6309               485.7517               531.8819
 Red. masses --      2.1176                 2.5537                 2.0056
 Frc consts  --      0.2083                 0.3550                 0.3343
 IR Inten    --      0.3337                 1.2855                29.1074

                     13                     14                     15
                      A                      A                      A
 Frequencies --    712.5166               791.4524               874.0027
 Red. masses --      3.2082                 1.1918                 1.9333
 Frc consts  --      0.9596                 0.4398                 0.8701
 IR Inten    --      0.5636                 2.5759                 0.1951

                     16                     17                     18
                      A                      A                      A
 Frequencies --    936.4746               950.2919               989.3776
 Red. masses --      1.7525                 1.6314                 1.3844
 Frc consts  --      0.9055                 0.8680                 0.7984
 IR Inten    --      0.1389                 2.1783                 1.9852

                     19                     20                     21
                      A                      A                      A
 Frequencies --   1007.5824              1033.7906              1065.9344
 Red. masses --      1.2392                 2.2676                 1.5277
 Frc consts  --      0.7413                 1.4278                 1.0227
 IR Inten    --      0.6392                 2.0526                 0.7545

                     22                     23                     24
                      A                      A                      A
 Frequencies --   1101.5744              1210.4414              1254.3541
 Red. masses --      1.6400                 2.2697                 2.4489
 Frc consts  --      1.1725                 1.9593                 2.2702
 IR Inten    --      3.8182                 2.1757                 7.0785

                     25                     26                     27
                      A                      A                      A
 Frequencies --   1272.3223              1340.1654              1388.0572
 Red. masses --      2.5218                 1.2414                 1.4504
 Frc consts  --      2.4052                 1.3137                 1.6464
 IR Inten    --      1.4036                 0.4586                 0.7983

                     28                     29                     30
                      A                      A                      A
 Frequencies --   1419.1108              1435.8468              1444.2743
 Red. masses --      1.2135                 1.2581                 1.2105
 Frc consts  --      1.4399                 1.5282                 1.4877
 IR Inten    --      2.8349                 4.1021                 2.2250

                     31                     32                     33
                      A                      A                      A
 Frequencies --   1485.4572              1511.7083              1513.2747
 Red. masses --      1.1666                 1.0677                 1.0488
 Frc consts  --      1.5167                 1.4376                 1.4151
 IR Inten    --      0.7197                 0.2209                 0.0990

                     34                     35                     36
                      A                      A                      A
 Frequencies --   1517.6732              1536.0434              1537.4345
 Red. masses --      1.0487                 1.0537                 1.0705
 Frc consts  --      1.4232                 1.4647                 1.4909
 IR Inten    --      4.3609                 8.1267                 4.3244

                     37                     38                     39
                      A                      A                      A
 Frequencies --   1539.4771              1540.8106              3024.2465
 Red. masses --      1.0451                 1.0512                 1.0604
 Frc consts  --      1.4593                 1.4704                 5.7144
 IR Inten    --      2.5372                 3.4203                36.3542

                     40                     41                     42
                      A                      A                      A
 Frequencies --   3038.0370              3043.8977              3052.3791
 Red. masses --      1.0344                 1.0356                 1.0361
 Frc consts  --      5.6249                 5.6535                 5.6876
 IR Inten    --     28.4217                12.3657                24.5689

                     43                     44                     45
                      A                      A                      A
 Frequencies --   3058.6324              3103.2782              3107.0250
 Red. masses --      1.1022                 1.1019                 1.1020
 Frc consts  --      6.0750                 6.2521                 6.2677
 IR Inten    --     20.5828                 9.8920                58.9669

                     46                     47                     48
                      A                      A                      A
 Frequencies --   3111.1461              3113.5586              3117.1687
 Red. masses --      1.1021                 1.1026                 1.1011
 Frc consts  --      6.2852                 6.2975                 6.3039
 IR Inten    --     19.1412                43.0159                55.2022

                     49                     50                     51
                      A                      A                      A
 Frequencies --   3122.3151              3150.1700              3248.1683
 Red. masses --      1.1021                 1.0507                 1.1182
 Frc consts  --      6.3301                 6.1434                 6.9508
 IR Inten    --     32.9220                20.6440                20.7020

 - Thermochemistry -
 -------------------
 Temperature   298.150 Kelvin.  Pressure   1.00000 Atm.
 Atom     1 has atomic number  6 and mass  12.00000

 Molecular mass:    85.10173 amu.
 Principal axes and moments of inertia in atomic units:
                           1         2         3
     Eigenvalues --   413.17684 711.03770 716.81878
           X            0.99999  -0.00382  -0.00245
           Y            0.00371   0.99906  -0.04312
           Z            0.00261   0.04311   0.99907
 This molecule is an asymmetric top.
 Rotational symmetry number  1.
 Rotational temperatures (Kelvin)      0.20963     0.12181     0.12083
 Rotational constants (GHZ):           4.36796     2.53818     2.51771
 Zero-point vibrational energy     457009.8 (Joules/Mol)
                                  109.22797 (Kcal/Mol)
 Warning -- explicit consideration of  12 degrees of freedom as
           vibrations may cause significant error
 Vibrational temperatures:    129.05   169.78   311.02   368.07   392.21
          (Kelvin)            397.31   449.38   506.37   557.70   587.93
                              698.89   765.26  1025.15  1138.72  1257.49
                             1347.38  1367.26  1423.49  1449.68  1487.39
                             1533.64  1584.92  1741.55  1804.73  1830.59
                             1928.20  1997.10  2041.78  2065.86  2077.99
                             2137.24  2175.01  2177.26  2183.59  2210.02
                             2212.02  2214.96  2216.88  4351.21  4371.05
                             4379.48  4391.69  4400.68  4464.92  4470.31
                             4476.24  4479.71  4484.90  4492.31  4532.39
                             4673.38

 Zero-point correction=                           0.174066 (Hartree/Particle)
 Thermal correction to Energy=                    0.182712
 Thermal correction to Enthalpy=                  0.183656
 Thermal correction to Gibbs Free Energy=         0.141663
 Sum of electronic and zero-point Energies=           -236.235992
 Sum of electronic and thermal Energies=              -236.227346
 Sum of electronic and thermal Enthalpies=            -236.226402
 Sum of electronic and thermal Free Energies=         -236.268394

                     E (Thermal)             CV                S
                      KCal/Mol        Cal/Mol-Kelvin    Cal/Mol-Kelvin
 Total                  114.653             31.688             88.381
 Electronic               0.000              0.000              1.377
 Translational            0.889              2.981             39.237
 Rotational               0.889              2.981             26.846
 Vibrational            112.876             25.727             20.921
 Vibration     1          0.602              1.956              3.667
 Vibration     2          0.608              1.934              3.133
 Vibration     3          0.645              1.816              1.991
 Vibration     4          0.666              1.753              1.690
 Vibration     5          0.676              1.724              1.580
 Vibration     6          0.678              1.718              1.557
 Vibration     7          0.701              1.650              1.350
 Vibration     8          0.728              1.571              1.157
 Vibration     9          0.756              1.497              1.009
 Vibration    10          0.773              1.451              0.931
 Vibration    11          0.842              1.282              0.695
 Vibration    12          0.887              1.179              0.583

 Optimization completed.
    -- Stationary point found.
 Normal termination of Gaussian 09 at Sat Nov  7 02:30:32 2015.
