 Gaussian 09, Revision D.01,
 Gaussian 09:  ES64L-G09RevD.01 24-Apr-2013

 --------------------------------------------------------
 #p B3LYP/6-31G(d) opt=(tight,calcall) int=ultrafine freq
 --------------------------------------------------------

 ---------------------------------------------
 using B3LYP/6-31G(d) to do opt and freq calc.
 ---------------------------------------------
 Symbolic Z-matrix:
 Charge =  0 Multiplicity = 2

 SCF Done:  E(UB3LYP) =  -236.411368988     A.U. after   13 cycles
 SCF Done:  E(UB3LYP) =  -236.418866703     A.U. after   12 cycles
 SCF Done:  E(UB3LYP) =  -236.421296207     A.U. after   11 cycles
 SCF Done:  E(UB3LYP) =  -236.421682390     A.U. after   12 cycles
 SCF Done:  E(UB3LYP) =  -236.421886845     A.U. after   11 cycles
 SCF Done:  E(UB3LYP) =  -236.421551924     A.U. after   14 cycles
 SCF Done:  E(UB3LYP) =  -236.422059416     A.U. after   12 cycles
 SCF Done:  E(UB3LYP) =  -236.422178251     A.U. after   12 cycles
 SCF Done:  E(UB3LYP) =  -236.422429522     A.U. after   15 cycles
 SCF Done:  E(UB3LYP) =  -236.422866898     A.U. after   13 cycles
 SCF Done:  E(UB3LYP) =  -236.422936544     A.U. after   11 cycles
 SCF Done:  E(UB3LYP) =  -236.422942687     A.U. after   10 cycles
 SCF Done:  E(UB3LYP) =  -236.422942982     A.U. after    8 cycles
 SCF Done:  E(UB3LYP) =  -236.422942972     A.U. after    5 cycles
 Optimization completed.
    -- Stationary point found.
 Normal termination of Gaussian 09 at Mon Apr 11 11:49:59 2016.

 --------------------------------------------------------------------
 #P Geom=AllCheck Guess=TCheck SCRF=Check GenChk UB3LYP/6-31G(d) Freq
 --------------------------------------------------------------------

 Structure from the checkpoint file:  "/WORK/tsinghua_xqyou_1/scratch/Gau-3552.chk"
 ---------------------------------------------
 using B3LYP/6-31G(d) to do opt and freq calc.
 ---------------------------------------------
 Charge =  0 Multiplicity = 2

                         Standard orientation:
 ---------------------------------------------------------------------
 Center     Atomic      Atomic             Coordinates (Angstroms)
 Number     Number       Type             X           Y           Z
 ---------------------------------------------------------------------
      1          6           0       -1.953504   -0.893616   -0.517789
      2          1           0       -1.307340   -1.695405   -0.892564
      3          1           0       -2.135351   -0.197334   -1.344413
      4          1           0       -2.915844   -1.338805   -0.237066
      5          6           0       -1.308348   -0.171129    0.689474
      6          1           0       -2.030878    0.575130    1.056905
      7          1           0       -1.174347   -0.899274    1.501034
      8          6           0        0.000000    0.504876    0.390959
      9          6           0        1.308347   -0.171130    0.689474
     10          1           0        1.174346   -0.899275    1.501035
     11          1           0        2.030879    0.575128    1.056905
     12          6           0        1.953502   -0.893618   -0.517789
     13          1           0        2.135353   -0.197335   -1.344412
     14          1           0        2.915840   -1.338811   -0.237065
     15          1           0        1.307336   -1.695404   -0.892566
     16          6           0        0.000002    1.758596   -0.431899
     17          1           0        0.000022    1.561709   -1.519226
     18          1           0       -0.888194    2.372894   -0.231590
     19          1           0        0.888180    2.372911   -0.231561
 ---------------------------------------------------------------------

 SCF Done:  E(UB3LYP) =  -236.422942972     A.U. after    1 cycles

 The electronic state is 2-A.
 Alpha  occ. eigenvalues --  -10.18112 -10.17819 -10.17817 -10.17293 -10.17273
 Alpha  occ. eigenvalues --  -10.17273  -0.80696  -0.74470  -0.71078  -0.64487
 Alpha  occ. eigenvalues --   -0.60766  -0.52264  -0.45691  -0.45019  -0.42309
 Alpha  occ. eigenvalues --   -0.41220  -0.38737  -0.38602  -0.38121  -0.35786
 Alpha  occ. eigenvalues --   -0.35284  -0.33544  -0.32163  -0.31369  -0.16276
 Alpha virt. eigenvalues --    0.08067   0.12203   0.12933   0.13159   0.14149
 Alpha virt. eigenvalues --    0.15595   0.16127   0.17571   0.19331   0.19506
 Alpha virt. eigenvalues --    0.19510   0.20870   0.21923   0.23728   0.24533

  Beta  occ. eigenvalues --  -10.17909 -10.17908 -10.17387 -10.17138 -10.17138
  Beta  occ. eigenvalues --  -10.16755  -0.79314  -0.74208  -0.70581  -0.63889
  Beta  occ. eigenvalues --   -0.60609  -0.50842  -0.45311  -0.44792  -0.41039
  Beta  occ. eigenvalues --   -0.40848  -0.38453  -0.38292  -0.37541  -0.35378
  Beta  occ. eigenvalues --   -0.34874  -0.33400  -0.31805  -0.30905
  Beta virt. eigenvalues --   -0.02507   0.08366   0.12330   0.13000   0.13257
  Beta virt. eigenvalues --    0.14220   0.15803   0.16309   0.17660   0.19538
  Beta virt. eigenvalues --    0.19666   0.20347   0.20943   0.23437   0.23856

 Mulliken charges and spin densities:
               1          2
     1  C   -0.438372   0.046308
     2  H    0.145407  -0.000455
     3  H    0.145212  -0.002156
     4  H    0.139944   0.009680
     5  C   -0.301339  -0.071685
     6  H    0.132716   0.024677
     7  H    0.131605   0.007242
     8  C    0.146255   0.961730
     9  C   -0.301339  -0.071685
    10  H    0.131605   0.007242
    11  H    0.132716   0.024677
    12  C   -0.438371   0.046308
    13  H    0.145211  -0.002156
    14  H    0.139944   0.009680
    15  H    0.145407  -0.000455
    16  C   -0.497482  -0.079873
    17  H    0.149557   0.059175
    18  H    0.145662   0.015872
    19  H    0.145663   0.015874
 Sum of Mulliken charges =   0.00000   1.00000

 Dipole moment (field-independent basis, Debye):
    X=              0.0000    Y=             -0.0183    Z=             -0.0979  Tot=              0.0996
 Quadrupole moment (field-independent basis, Debye-Ang):
   XX=            -40.3147   YY=            -40.5081   ZZ=            -41.1971
   XY=              0.0000   XZ=              0.0000   YZ=             -0.6373

  Exact polarizability:  71.913   0.000  63.719   0.000  -2.351  56.708
 Approx polarizability:  89.299   0.000  84.380   0.000  -3.717  78.766

                      1                      2                      3
                      A                      A                      A
 Frequencies --     28.3582                57.5940                91.7859
 Red. masses --      1.8142                 2.6259                 1.0332
 Frc consts  --      0.0009                 0.0051                 0.0051
 IR Inten    --      0.0032                 0.0527                 0.0003

                      4                      5                      6
                      A                      A                      A
 Frequencies --    150.5935               221.5860               234.0166
 Red. masses --      2.6877                 1.0646                 1.1357
 Frc consts  --      0.0359                 0.0308                 0.0366
 IR Inten    --      0.9548                 0.0115                 0.0179

                      7                      8                      9
                      A                      A                      A
 Frequencies --    282.8770               397.8171               421.8981
 Red. masses --      2.3462                 1.9602                 2.0807
 Frc consts  --      0.1106                 0.1828                 0.2182
 IR Inten    --      0.1125                 0.5734                 0.0006

                     10                     11                     12
                      A                      A                      A
 Frequencies --    473.1638               712.6681               785.0064
 Red. masses --      3.0427                 2.8384                 1.1442
 Frc consts  --      0.4014                 0.8494                 0.4154
 IR Inten    --      3.7890                 0.1754                 0.9623

                     13                     14                     15
                      A                      A                      A
 Frequencies --    800.4442               908.6372               963.0111
 Red. masses --      1.1931                 2.0818                 2.3047
 Frc consts  --      0.4504                 1.0127                 1.2593
 IR Inten    --      3.3481                 0.6297                 1.5668

                     16                     17                     18
                      A                      A                      A
 Frequencies --   1000.8550              1005.4050              1043.5831
 Red. masses --      1.4102                 1.8567                 1.4213
 Frc consts  --      0.8323                 1.1058                 0.9120
 IR Inten    --      2.5328                 0.3654                 4.6956

                     19                     20                     21
                      A                      A                      A
 Frequencies --   1054.5730              1082.9704              1090.2446
 Red. masses --      1.9296                 1.4602                 1.5627
 Frc consts  --      1.2644                 1.0090                 1.0944
 IR Inten    --      0.4570                 5.8317                 1.0834

                     22                     23                     24
                      A                      A                      A
 Frequencies --   1258.7303              1259.4990              1321.0523
 Red. masses --      1.9391                 1.7522                 1.2210
 Frc consts  --      1.8101                 1.6377                 1.2555
 IR Inten    --      0.4724                 3.4500                 7.6544

                     25                     26                     27
                      A                      A                      A
 Frequencies --   1360.6580              1363.7362              1373.9096
 Red. masses --      1.5114                 1.3341                 1.8194
 Frc consts  --      1.6487                 1.4619                 2.0234
 IR Inten    --      0.5283                 1.9493                 0.1813

                     28                     29                     30
                      A                      A                      A
 Frequencies --   1425.6380              1430.3343              1438.2395
 Red. masses --      1.2239                 1.2503                 1.2113
 Frc consts  --      1.4656                 1.5070                 1.4763
 IR Inten    --      0.0513                 1.2430                 2.7930

                     31                     32                     33
                      A                      A                      A
 Frequencies --   1499.6598              1501.5089              1516.3277
 Red. masses --      1.0625                 1.0831                 1.0740
 Frc consts  --      1.4079                 1.4387                 1.4549
 IR Inten    --      3.4269                 0.0772                 5.0478

                     34                     35                     36
                      A                      A                      A
 Frequencies --   1518.1901              1526.5911              1530.1761
 Red. masses --      1.0473                 1.0460                 1.0427
 Frc consts  --      1.4222                 1.4362                 1.4384
 IR Inten    --      4.2085                 0.1448                 8.1048

                     37                     38                     39
                      A                      A                      A
 Frequencies --   1532.6670              1538.1131              2963.3030
 Red. masses --      1.0765                 1.0712                 1.0588
 Frc consts  --      1.4899                 1.4931                 5.4780
 IR Inten    --      2.1543                 2.3375                36.9368

                     40                     41                     42
                      A                      A                      A
 Frequencies --   2995.3613              2998.5564              3040.9531
 Red. masses --      1.0639                 1.0673                 1.0715
 Frc consts  --      5.6240                 5.6539                 5.8378
 IR Inten    --     36.1739                45.1448                37.6018

                     43                     44                     45
                      A                      A                      A
 Frequencies --   3042.0386              3043.8860              3048.4278
 Red. masses --      1.0346                 1.0348                 1.0968
 Frc consts  --      5.6411                 5.6491                 6.0054
 IR Inten    --     26.1151                36.7986                 2.1742

                     46                     47                     48
                      A                      A                      A
 Frequencies --   3055.8753              3085.5849              3107.9339
 Red. masses --      1.0950                 1.1019                 1.1023
 Frc consts  --      6.0246                 6.1813                 6.2735
 IR Inten    --     46.1093                33.7985                59.6936

                     49                     50                     51
                      A                      A                      A
 Frequencies --   3109.7120              3116.0813              3119.7780
 Red. masses --      1.1017                 1.1032                 1.1032
 Frc consts  --      6.2770                 6.3116                 6.3262
 IR Inten    --     44.7932                19.6304                60.4308

 - Thermochemistry -
 -------------------
 Temperature   298.150 Kelvin.  Pressure   1.00000 Atm.
 Atom     1 has atomic number  6 and mass  12.00000

 Molecular mass:    85.10173 amu.
 Principal axes and moments of inertia in atomic units:
                           1         2         3
     Eigenvalues --   435.98514 755.57900 931.18783
           X            1.00000   0.00000   0.00000
           Y            0.00000   0.99989  -0.01507
           Z            0.00000   0.01507   0.99989
 This molecule is an asymmetric top.
 Rotational symmetry number  1.
 Warning -- assumption of classical behavior for rotation
           may cause significant error
 Rotational temperatures (Kelvin)      0.19866     0.11463     0.09301
 Rotational constants (GHZ):           4.13946     2.38855     1.93811
 Zero-point vibrational energy     460141.3 (Joules/Mol)
                                  109.97640 (Kcal/Mol)
 Warning -- explicit consideration of  10 degrees of freedom as
           vibrations may cause significant error
 Vibrational temperatures:     40.80    82.86   132.06   216.67   318.81
          (Kelvin)            336.70   407.00   572.37   607.02   680.78
                             1025.37  1129.45  1151.66  1307.32  1385.56
                             1440.01  1446.55  1501.48  1517.29  1558.15
                             1568.62  1811.03  1812.14  1900.70  1957.68
                             1962.11  1976.75  2051.17  2057.93  2069.30
                             2157.67  2160.33  2181.65  2184.33  2196.42
                             2201.58  2205.16  2213.00  4263.53  4309.65
                             4314.25  4375.25  4376.81  4379.47  4386.00
                             4396.72  4439.46  4471.62  4474.18  4483.34
                             4488.66

 Zero-point correction=                           0.175259 (Hartree/Particle)
 Thermal correction to Energy=                    0.184176
 Thermal correction to Enthalpy=                  0.185120
 Thermal correction to Gibbs Free Energy=         0.140357
 Sum of electronic and zero-point Energies=           -236.247684
 Sum of electronic and thermal Energies=              -236.238767
 Sum of electronic and thermal Enthalpies=            -236.237823
 Sum of electronic and thermal Free Energies=         -236.282586

                     E (Thermal)             CV                S
                      KCal/Mol        Cal/Mol-Kelvin    Cal/Mol-Kelvin
 Total                  115.572             29.988             94.212
 Electronic               0.000              0.000              1.377
 Translational            0.889              2.981             39.237
 Rotational               0.889              2.981             27.219
 Vibrational            113.795             24.027             26.378
 Vibration     1          0.593              1.984              5.941
 Vibration     2          0.596              1.974              4.538
 Vibration     3          0.602              1.955              3.622
 Vibration     4          0.618              1.902              2.665
 Vibration     5          0.648              1.808              1.946
 Vibration     6          0.654              1.789              1.848
 Vibration     7          0.682              1.705              1.516
 Vibration     8          0.764              1.475              0.971
 Vibration     9          0.784              1.423              0.886
 Vibration    10          0.830              1.310              0.729

 Optimization completed.
    -- Stationary point found.
 Normal termination of Gaussian 09 at Mon Apr 11 11:53:08 2016.
