 Gaussian 09, Revision D.01,
 Gaussian 09:  ES64L-G09RevD.01 24-Apr-2013

 ----------------------------------------------
 #p B3LYP/6-31G(d) opt=tight int=ultrafine freq
 ----------------------------------------------

 ---------------------------------------------
 using B3LYP/6-31G(d) to do opt and freq calc.
 ---------------------------------------------
 Symbolic Z-matrix:
 Charge =  0 Multiplicity = 2

 SCF Done:  E(UB3LYP) =  -236.407933330     A.U. after   14 cycles
 SCF Done:  E(UB3LYP) =  -236.416049349     A.U. after   13 cycles
 SCF Done:  E(UB3LYP) =  -236.418356337     A.U. after   13 cycles
 SCF Done:  E(UB3LYP) =  -236.418611467     A.U. after   12 cycles
 SCF Done:  E(UB3LYP) =  -236.418661822     A.U. after   11 cycles
 SCF Done:  E(UB3LYP) =  -236.418697833     A.U. after   11 cycles
 SCF Done:  E(UB3LYP) =  -236.418732262     A.U. after   11 cycles
 SCF Done:  E(UB3LYP) =  -236.418776549     A.U. after   12 cycles
 SCF Done:  E(UB3LYP) =  -236.418781316     A.U. after   11 cycles
 SCF Done:  E(UB3LYP) =  -236.418812827     A.U. after    9 cycles
 SCF Done:  E(UB3LYP) =  -236.419527291     A.U. after   13 cycles
 SCF Done:  E(UB3LYP) =  -236.419515498     A.U. after   14 cycles
 SCF Done:  E(UB3LYP) =  -236.419631377     A.U. after   11 cycles
 SCF Done:  E(UB3LYP) =  -236.419663972     A.U. after   10 cycles
 SCF Done:  E(UB3LYP) =  -236.419666474     A.U. after   10 cycles
 SCF Done:  E(UB3LYP) =  -236.419666703     A.U. after    8 cycles
 SCF Done:  E(UB3LYP) =  -236.419666714     A.U. after    7 cycles
 SCF Done:  E(UB3LYP) =  -236.419666714     A.U. after    5 cycles
 SCF Done:  E(UB3LYP) =  -236.419666714     A.U. after    4 cycles
 Optimization completed.
    -- Stationary point found.
 Normal termination of Gaussian 09 at Sat Nov  7 02:27:31 2015.

 --------------------------------------------------------------------
 #P Geom=AllCheck Guess=TCheck SCRF=Check GenChk UB3LYP/6-31G(d) Freq
 --------------------------------------------------------------------

 Structure from the checkpoint file:  "/state/partition1/Gau-5236.chk"
 ---------------------------------------------
 using B3LYP/6-31G(d) to do opt and freq calc.
 ---------------------------------------------
 Charge =  0 Multiplicity = 2

                         Standard orientation:
 ---------------------------------------------------------------------
 Center     Atomic      Atomic             Coordinates (Angstroms)
 Number     Number       Type             X           Y           Z
 ---------------------------------------------------------------------
      1          6           0        2.230935   -0.881485    0.089174
      2          1           0        2.136636   -1.894770   -0.319684
      3          1           0        2.282479   -0.967051    1.182674
      4          1           0        3.186194   -0.467808   -0.255225
      5          6           0        1.054240    0.007438   -0.335704
      6          1           0        1.042664    0.048917   -1.436145
      7          6           0       -0.290945   -0.602163    0.115133
      8          1           0       -0.329844   -0.620451    1.216800
      9          1           0       -0.305185   -1.668508   -0.187537
     10          6           0       -1.500482    0.094555   -0.421176
     11          1           0       -1.450098    0.488722   -1.435812
     12          6           0       -2.844194   -0.058976    0.210780
     13          1           0       -2.785050    0.004842    1.306150
     14          1           0       -3.548566    0.706003   -0.136208
     15          1           0       -3.304869   -1.038853   -0.015273
     16          6           0        1.227081    1.439393    0.189962
     17          1           0        0.393925    2.080352   -0.118550
     18          1           0        1.264250    1.447979    1.287546
     19          1           0        2.157653    1.888058   -0.177745
 ---------------------------------------------------------------------

 SCF Done:  E(UB3LYP) =  -236.419666714     A.U. after    1 cycles

 The electronic state is 2-A.
 Alpha  occ. eigenvalues --  -10.18430 -10.18315 -10.17727 -10.17607 -10.16873
 Alpha  occ. eigenvalues --  -10.16606  -0.80754  -0.75583  -0.67790  -0.67570
 Alpha  occ. eigenvalues --   -0.57675  -0.55178  -0.45573  -0.44499  -0.43002
 Alpha  occ. eigenvalues --   -0.40824  -0.39872  -0.38533  -0.37722  -0.35959
 Alpha  occ. eigenvalues --   -0.34682  -0.32335  -0.31900  -0.31254  -0.17778
 Alpha virt. eigenvalues --    0.09323   0.11739   0.11823   0.14646   0.15125
 Alpha virt. eigenvalues --    0.15918   0.16651   0.17128   0.17514   0.18963
 Alpha virt. eigenvalues --    0.19724   0.20115   0.21847   0.24400   0.25175

  Beta  occ. eigenvalues --  -10.18401 -10.17816 -10.17698 -10.16944 -10.16874
  Beta  occ. eigenvalues --  -10.16595  -0.80248  -0.74320  -0.67593  -0.67532
  Beta  occ. eigenvalues --   -0.56488  -0.54295  -0.45132  -0.44091  -0.42422
  Beta  occ. eigenvalues --   -0.39850  -0.39583  -0.38182  -0.37695  -0.35553
  Beta  occ. eigenvalues --   -0.34323  -0.32076  -0.31709  -0.31092
  Beta virt. eigenvalues --   -0.02864   0.09477   0.11890   0.12113   0.14866
  Beta virt. eigenvalues --    0.15373   0.15967   0.16872   0.17327   0.17950
  Beta virt. eigenvalues --    0.19183   0.19943   0.20694   0.22130   0.24767

 Mulliken charges and spin densities:
               1          2
     1  C   -0.443567   0.000583
     2  H    0.138326   0.000183
     3  H    0.137942   0.000034
     4  H    0.139629  -0.000291
     5  C   -0.068873   0.012054
     6  H    0.120434  -0.001076
     7  C   -0.266596  -0.077300
     8  H    0.128219   0.015349
     9  H    0.132675   0.060194
    10  C   -0.094935   1.018038
    11  H    0.121837  -0.047837
    12  C   -0.475103  -0.082183
    13  H    0.149026   0.019831
    14  H    0.150320   0.009528
    15  H    0.148710   0.064910
    16  C   -0.438038   0.007390
    17  H    0.147247   0.000911
    18  H    0.135778   0.000028
    19  H    0.136970  -0.000345
 Sum of Mulliken charges =   0.00000   1.00000

 Dipole moment (field-independent basis, Debye):
    X=             -0.1173    Y=             -0.2063    Z=             -0.0822  Tot=              0.2512
 Quadrupole moment (field-independent basis, Debye-Ang):
   XX=            -40.4310   YY=            -41.3068   ZZ=            -40.1372
   XY=              0.1774   XZ=             -0.1307   YZ=             -0.2929

  Exact polarizability:  75.558  -0.706  59.837  -0.574  -1.712  57.137
 Approx polarizability:  87.037  -0.560  80.231  -0.689  -2.952  83.375

                      1                      2                      3
                      A                      A                      A
 Frequencies --     53.6989                96.9576               126.6772
 Red. masses --      2.2359                 1.2957                 1.5982
 Frc consts  --      0.0038                 0.0072                 0.0151
 IR Inten    --      0.0752                 0.0436                 0.0498

                      4                      5                      6
                      A                      A                      A
 Frequencies --    193.7416               229.5883               257.2115
 Red. masses --      2.0778                 1.0472                 1.0913
 Frc consts  --      0.0460                 0.0325                 0.0425
 IR Inten    --      0.1409                 0.0160                 0.0134

                      7                      8                      9
                      A                      A                      A
 Frequencies --    321.0027               370.9871               430.6935
 Red. masses --      2.3577                 2.1710                 1.5708
 Frc consts  --      0.1431                 0.1760                 0.1717
 IR Inten    --      0.3061                 0.8404                 9.9306

                     10                     11                     12
                      A                      A                      A
 Frequencies --    441.5077               457.8281               814.7258
 Red. masses --      2.2808                 1.7464                 2.5258
 Frc consts  --      0.2620                 0.2157                 0.9878
 IR Inten    --      0.1189                 7.7727                 0.5645

                     13                     14                     15
                      A                      A                      A
 Frequencies --    871.9733               906.4110               940.6463
 Red. masses --      1.3829                 2.0972                 1.1807
 Frc consts  --      0.6195                 1.0152                 0.6155
 IR Inten    --      0.5174                 0.9033                 0.9449

                     16                     17                     18
                      A                      A                      A
 Frequencies --    972.8895               976.6754              1002.9952
 Red. masses --      1.7639                 1.5009                 1.3384
 Frc consts  --      0.9837                 0.8436                 0.7933
 IR Inten    --      2.6887                 0.2444                 0.9457

                     19                     20                     21
                      A                      A                      A
 Frequencies --   1068.2660              1123.6326              1149.8291
 Red. masses --      1.6409                 1.7923                 2.0761
 Frc consts  --      1.1033                 1.3333                 1.6172
 IR Inten    --      0.3991                 1.5401                 0.1611

                     22                     23                     24
                      A                      A                      A
 Frequencies --   1194.8978              1204.7078              1256.2930
 Red. masses --      2.0896                 1.7766                 1.3710
 Frc consts  --      1.7579                 1.5192                 1.2748
 IR Inten    --      1.6202                 4.8806                 1.1179

                     25                     26                     27
                      A                      A                      A
 Frequencies --   1305.8444              1379.2501              1382.1403
 Red. masses --      1.2677                 1.3976                 1.3838
 Frc consts  --      1.2737                 1.5665                 1.5575
 IR Inten    --      7.9316                 0.5946                 2.6833

                     28                     29                     30
                      A                      A                      A
 Frequencies --   1424.2144              1428.7999              1439.7350
 Red. masses --      1.4062                 1.3460                 1.3549
 Frc consts  --      1.6805                 1.6190                 1.6547
 IR Inten    --      4.0992                 5.8754                 3.0067

                     31                     32                     33
                      A                      A                      A
 Frequencies --   1447.8587              1494.7867              1505.2607
 Red. masses --      1.2704                 1.0820                 1.0640
 Frc consts  --      1.5691                 1.4244                 1.4205
 IR Inten    --      2.1347                 0.4654                 5.7092

                     34                     35                     36
                      A                      A                      A
 Frequencies --   1516.2428              1518.1414              1524.2997
 Red. masses --      1.0438                 1.0427                 1.0552
 Frc consts  --      1.4138                 1.4159                 1.4445
 IR Inten    --      2.5537                 0.5394                 3.3674

                     37                     38                     39
                      A                      A                      A
 Frequencies --   1533.1226              1538.9390              2918.0483
 Red. masses --      1.0470                 1.0533                 1.0722
 Frc consts  --      1.4500                 1.4697                 5.3789
 IR Inten    --      7.2257                 5.5547                42.7632

                     40                     41                     42
                      A                      A                      A
 Frequencies --   2954.7238              2998.2662              3013.3628
 Red. masses --      1.0612                 1.0812                 1.0859
 Frc consts  --      5.4586                 5.7264                 5.8094
 IR Inten    --     49.6261                 0.4807                45.3299

                     43                     44                     45
                      A                      A                      A
 Frequencies --   3033.8659              3039.2754              3046.5178
 Red. masses --      1.0359                 1.0372                 1.0717
 Frc consts  --      5.6178                 5.6451                 5.8606
 IR Inten    --     30.5519                27.4678                32.6510

                     46                     47                     48
                      A                      A                      A
 Frequencies --   3096.0465              3100.3010              3101.9940
 Red. masses --      1.1011                 1.0987                 1.1007
 Frc consts  --      6.2188                 6.2221                 6.2401
 IR Inten    --      7.2879                25.4203                67.3627

                     49                     50                     51
                      A                      A                      A
 Frequencies --   3107.2551              3115.5486              3156.9457
 Red. masses --      1.1022                 1.1018                 1.0871
 Frc consts  --      6.2698                 6.3011                 6.3832
 IR Inten    --     42.8746                37.1735                33.4882

 - Thermochemistry -
 -------------------
 Temperature   298.150 Kelvin.  Pressure   1.00000 Atm.
 Atom     1 has atomic number  6 and mass  12.00000

 Molecular mass:    85.10173 amu.
 Principal axes and moments of inertia in atomic units:
                           1         2         3
     Eigenvalues --   264.157221046.722041200.85791
           X            1.00000  -0.00025  -0.00172
           Y            0.00024   0.99995  -0.00975
           Z            0.00172   0.00975   0.99995
 This molecule is an asymmetric top.
 Rotational symmetry number  1.
 Rotational temperatures (Kelvin)      0.32789     0.08275     0.07213
 Rotational constants (GHZ):           6.83207     1.72418     1.50288
 Zero-point vibrational energy     458077.8 (Joules/Mol)
                                  109.48322 (Kcal/Mol)
 Warning -- explicit consideration of  11 degrees of freedom as
           vibrations may cause significant error
 Vibrational temperatures:     77.26   139.50   182.26   278.75   330.33
          (Kelvin)            370.07   461.85   533.77   619.67   635.23
                              658.71  1172.21  1254.57  1304.12  1353.38
                             1399.77  1405.22  1443.08  1536.99  1616.65
                             1654.35  1719.19  1733.30  1807.52  1878.82
                             1984.43  1988.59  2049.12  2055.72  2071.45
                             2083.14  2150.66  2165.73  2181.53  2184.26
                             2193.12  2205.82  2214.19  4198.42  4251.18
                             4313.83  4335.55  4365.05  4372.83  4383.25
                             4454.51  4460.64  4463.07  4470.64  4482.57
                             4542.14

 Zero-point correction=                           0.174473 (Hartree/Particle)
 Thermal correction to Energy=                    0.183217
 Thermal correction to Enthalpy=                  0.184161
 Thermal correction to Gibbs Free Energy=         0.140881
 Sum of electronic and zero-point Energies=           -236.245194
 Sum of electronic and thermal Energies=              -236.236450
 Sum of electronic and thermal Enthalpies=            -236.235506
 Sum of electronic and thermal Free Energies=         -236.278786

                     E (Thermal)             CV                S
                      KCal/Mol        Cal/Mol-Kelvin    Cal/Mol-Kelvin
 Total                  114.970             30.422             91.090
 Electronic               0.000              0.000              1.377
 Translational            0.889              2.981             39.237
 Rotational               0.889              2.981             27.298
 Vibrational            113.193             24.460             23.177
 Vibration     1          0.596              1.976              4.676
 Vibration     2          0.603              1.951              3.515
 Vibration     3          0.611              1.926              2.996
 Vibration     4          0.635              1.849              2.192
 Vibration     5          0.652              1.796              1.882
 Vibration     6          0.667              1.751              1.681
 Vibration     7          0.706              1.633              1.305
 Vibration     8          0.743              1.532              1.076
 Vibration     9          0.792              1.403              0.856
 Vibration    10          0.801              1.380              0.822
 Vibration    11          0.816              1.344              0.772

 Optimization completed.
    -- Stationary point found.
 Normal termination of Gaussian 09 at Sat Nov  7 02:34:26 2015.
