 Gaussian 09, Revision D.01,
 Gaussian 09:  ES64L-G09RevD.01 24-Apr-2013

 ----------------------------------------------
 #p B3LYP/6-31G(d) opt=tight int=ultrafine freq
 ----------------------------------------------

 ---------------------------------------------
 using B3LYP/6-31G(d) to do opt and freq calc.
 ---------------------------------------------
 Symbolic Z-matrix:
 Charge =  0 Multiplicity = 2

 SCF Done:  E(UB3LYP) =  -236.400470373     A.U. after   14 cycles
 SCF Done:  E(UB3LYP) =  -236.408598390     A.U. after   13 cycles
 SCF Done:  E(UB3LYP) =  -236.410514091     A.U. after   13 cycles
 SCF Done:  E(UB3LYP) =  -236.410658282     A.U. after   12 cycles
 SCF Done:  E(UB3LYP) =  -236.410712167     A.U. after   11 cycles
 SCF Done:  E(UB3LYP) =  -236.410733914     A.U. after   10 cycles
 SCF Done:  E(UB3LYP) =  -236.410736073     A.U. after    8 cycles
 SCF Done:  E(UB3LYP) =  -236.410736260     A.U. after    7 cycles
 SCF Done:  E(UB3LYP) =  -236.410736272     A.U. after    6 cycles
 SCF Done:  E(UB3LYP) =  -236.410736273     A.U. after    5 cycles
 SCF Done:  E(UB3LYP) =  -236.410736274     A.U. after    5 cycles
 SCF Done:  E(UB3LYP) =  -236.410736274     A.U. after    5 cycles
 Optimization completed.
    -- Stationary point found.
 Normal termination of Gaussian 09 at Sat Nov  7 02:19:07 2015.

 --------------------------------------------------------------------
 #P Geom=AllCheck Guess=TCheck SCRF=Check GenChk UB3LYP/6-31G(d) Freq
 --------------------------------------------------------------------

 Structure from the checkpoint file:  "/state/partition1/Gau-25255.chk"
 ---------------------------------------------
 using B3LYP/6-31G(d) to do opt and freq calc.
 ---------------------------------------------
 Charge =  0 Multiplicity = 2

                         Standard orientation:
 ---------------------------------------------------------------------
 Center     Atomic      Atomic             Coordinates (Angstroms)
 Number     Number       Type             X           Y           Z
 ---------------------------------------------------------------------
      1          6           0       -1.437674   -1.351543   -0.097302
      2          1           0       -1.345836   -1.728536   -1.113244
      3          1           0       -2.224570   -1.774608    0.520542
      4          6           0       -0.734287   -0.092965    0.311178
      5          1           0       -0.610195   -0.104793    1.406694
      6          6           0        0.683081   -0.000275   -0.317443
      7          1           0        0.554086   -0.048237   -1.410990
      8          6           0        1.401725    1.316761    0.014459
      9          1           0        1.484580    1.455871    1.100785
     10          1           0        2.419135    1.312858   -0.394244
     11          1           0        0.886614    2.190225   -0.397326
     12          6           0       -1.622401    1.132871   -0.027942
     13          1           0       -1.213063    2.059544    0.389037
     14          1           0       -1.716332    1.257374   -1.113784
     15          1           0       -2.630598    1.001417    0.379810
     16          6           0        1.552938   -1.193369    0.109852
     17          1           0        1.726792   -1.178147    1.194095
     18          1           0        1.077153   -2.148703   -0.135206
     19          1           0        2.531938   -1.163144   -0.382980
 ---------------------------------------------------------------------

 SCF Done:  E(UB3LYP) =  -236.410736274     A.U. after    1 cycles

 The electronic state is 2-A.
 Alpha  occ. eigenvalues --  -10.18759 -10.18455 -10.18240 -10.17300 -10.16901
 Alpha  occ. eigenvalues --  -10.16622  -0.81465  -0.74234  -0.68461  -0.66037
 Alpha  occ. eigenvalues --   -0.59976  -0.54574  -0.45592  -0.44840  -0.42579
 Alpha  occ. eigenvalues --   -0.41302  -0.39579  -0.37875  -0.37708  -0.35907
 Alpha  occ. eigenvalues --   -0.34532  -0.32136  -0.32013  -0.30629  -0.19562
 Alpha virt. eigenvalues --    0.09088   0.11758   0.12579   0.13468   0.15334
 Alpha virt. eigenvalues --    0.16852   0.17115   0.17549   0.18124   0.19079
 Alpha virt. eigenvalues --    0.19519   0.20009   0.21165   0.24079   0.24735

  Beta  occ. eigenvalues --  -10.18841 -10.18429 -10.17157 -10.16902 -10.16856
  Beta  occ. eigenvalues --  -10.16605  -0.81028  -0.73614  -0.67962  -0.64719
  Beta  occ. eigenvalues --   -0.58952  -0.54190  -0.45268  -0.44476  -0.42347
  Beta  occ. eigenvalues --   -0.40908  -0.39113  -0.37652  -0.37572  -0.35513
  Beta  occ. eigenvalues --   -0.34260  -0.31880  -0.31610  -0.30520
  Beta virt. eigenvalues --   -0.03736   0.09171   0.11987   0.12999   0.14014
  Beta virt. eigenvalues --    0.15452   0.16994   0.17287   0.17869   0.18315
  Beta virt. eigenvalues --    0.19356   0.19790   0.20262   0.21235   0.24335

 Mulliken charges and spin densities:
               1          2
     1  C   -0.315104   1.082247
     2  H    0.137605  -0.049988
     3  H    0.138165  -0.050391
     4  C   -0.064117  -0.071042
     5  H    0.121301   0.012779
     6  C   -0.065878   0.010062
     7  H    0.116208  -0.000796
     8  C   -0.451016  -0.000611
     9  H    0.137593   0.000078
    10  H    0.140010   0.000688
    11  H    0.145088  -0.000061
    12  C   -0.447217   0.042676
    13  H    0.145661   0.016345
    14  H    0.140943  -0.000257
    15  H    0.142225  -0.001190
    16  C   -0.443170   0.009339
    17  H    0.136490   0.000013
    18  H    0.148656  -0.000041
    19  H    0.136557   0.000150
 Sum of Mulliken charges =   0.00000   1.00000

 Dipole moment (field-independent basis, Debye):
    X=             -0.0878    Y=              0.2192    Z=             -0.0296  Tot=              0.2380
 Quadrupole moment (field-independent basis, Debye-Ang):
   XX=            -40.8975   YY=            -41.7246   ZZ=            -40.0279
   XY=              0.3623   XZ=             -0.5250   YZ=              0.3130

  Exact polarizability:  67.603   1.879  65.199  -1.330   1.126  56.498
 Approx polarizability:  83.200   2.960  83.898  -1.917   2.019  84.025

                      1                      2                      3
                      A                      A                      A
 Frequencies --     84.9258               141.1739               213.6135
 Red. masses --      2.4569                 1.0264                 1.2752
 Frc consts  --      0.0104                 0.0121                 0.0343
 IR Inten    --      0.0190                 0.6741                 0.0502

                      4                      5                      6
                      A                      A                      A
 Frequencies --    224.3134               235.9765               281.5640
 Red. masses --      1.1689                 1.1452                 1.6202
 Frc consts  --      0.0347                 0.0376                 0.0757
 IR Inten    --      0.0323                 0.0506                 0.5629

                      7                      8                      9
                      A                      A                      A
 Frequencies --    343.7761               350.8554               383.3844
 Red. masses --      1.8734                 1.6559                 1.9268
 Frc consts  --      0.1304                 0.1201                 0.1669
 IR Inten    --      2.0267                 2.3227                 2.2504

                     10                     11                     12
                      A                      A                      A
 Frequencies --    431.0787               483.5836               554.6608
 Red. masses --      2.7090                 2.1121                 2.0594
 Frc consts  --      0.2966                 0.2910                 0.3733
 IR Inten    --      1.3840                 6.5932                27.6889

                     13                     14                     15
                      A                      A                      A
 Frequencies --    756.4449               895.9716               932.0220
 Red. masses --      2.1045                 2.3495                 1.3529
 Frc consts  --      0.7095                 1.1113                 0.6924
 IR Inten    --      0.0564                 1.3442                 0.3577

                     16                     17                     18
                      A                      A                      A
 Frequencies --    939.8055               971.3099               974.1030
 Red. masses --      1.1773                 1.5856                 1.4359
 Frc consts  --      0.6126                 0.8814                 0.8028
 IR Inten    --      0.8119                 0.5568                 0.5956

                     19                     20                     21
                      A                      A                      A
 Frequencies --   1009.2454              1040.1634              1120.4507
 Red. masses --      1.1928                 3.2593                 2.0715
 Frc consts  --      0.7158                 2.0777                 1.5322
 IR Inten    --      4.4735                 2.1505                 2.7168

                     22                     23                     24
                      A                      A                      A
 Frequencies --   1182.0138              1199.8570              1218.6255
 Red. masses --      2.0046                 1.7541                 2.0669
 Frc consts  --      1.6501                 1.4879                 1.8085
 IR Inten    --      0.8866                 3.3714                 0.7376

                     25                     26                     27
                      A                      A                      A
 Frequencies --   1320.0013              1337.6108              1366.7012
 Red. masses --      1.3694                 1.2628                 1.3757
 Frc consts  --      1.4058                 1.3312                 1.5140
 IR Inten    --      6.5682                 2.2426                 2.1329

                     28                     29                     30
                      A                      A                      A
 Frequencies --   1397.5649              1423.4643              1429.8959
 Red. masses --      1.4388                 1.2293                 1.2335
 Frc consts  --      1.6558                 1.4676                 1.4860
 IR Inten    --      0.2673                 1.8023                 4.1737

                     31                     32                     33
                      A                      A                      A
 Frequencies --   1447.8592              1485.8850              1517.6057
 Red. masses --      1.2256                 1.1750                 1.0477
 Frc consts  --      1.5138                 1.5285                 1.4216
 IR Inten    --      4.2412                 0.7580                 0.0734

                     34                     35                     36
                      A                      A                      A
 Frequencies --   1519.2953              1526.0632              1528.9526
 Red. masses --      1.0481                 1.0586                 1.0412
 Frc consts  --      1.4254                 1.4525                 1.4341
 IR Inten    --      2.3130                 2.2421                14.5292

                     37                     38                     39
                      A                      A                      A
 Frequencies --   1536.0152              1547.2728              2985.9400
 Red. masses --      1.0548                 1.0469                 1.0805
 Frc consts  --      1.4662                 1.4767                 5.6758
 IR Inten    --      2.1351                 3.2158                 2.4613

                     40                     41                     42
                      A                      A                      A
 Frequencies --   3001.7596              3036.2901              3041.4309
 Red. masses --      1.0846                 1.0377                 1.0375
 Frc consts  --      5.7579                 5.6364                 5.6544
 IR Inten    --     43.8265                19.6831                43.8401

                     43                     44                     45
                      A                      A                      A
 Frequencies --   3044.3958              3096.4726              3103.1607
 Red. masses --      1.0360                 1.1007                 1.0998
 Frc consts  --      5.6574                 6.2178                 6.2399
 IR Inten    --     19.2566                 1.7122                67.5416

                     46                     47                     48
                      A                      A                      A
 Frequencies --   3112.3246              3114.7339              3119.0189
 Red. masses --      1.1021                 1.1024                 1.1012
 Frc consts  --      6.2897                 6.3014                 6.3118
 IR Inten    --     41.9404                29.2349                45.5949

                     49                     50                     51
                      A                      A                      A
 Frequencies --   3125.6268              3151.0158              3248.2779
 Red. masses --      1.0996                 1.0511                 1.1176
 Frc consts  --      6.3294                 6.1488                 6.9480
 IR Inten    --     27.5143                18.2819                20.0252

 - Thermochemistry -
 -------------------
 Temperature   298.150 Kelvin.  Pressure   1.00000 Atm.
 Atom     1 has atomic number  6 and mass  12.00000

 Molecular mass:    85.10173 amu.
 Principal axes and moments of inertia in atomic units:
                           1         2         3
     Eigenvalues --   419.03077 615.31375 942.56177
           X            0.99984  -0.01774   0.00280
           Y            0.01774   0.99984   0.00264
           Z           -0.00284  -0.00259   0.99999
 This molecule is an asymmetric top.
 Rotational symmetry number  1.
 Rotational temperatures (Kelvin)      0.20670     0.14076     0.09189
 Rotational constants (GHZ):           4.30694     2.93304     1.91472
 Zero-point vibrational energy     457772.3 (Joules/Mol)
                                  109.41021 (Kcal/Mol)
 Warning -- explicit consideration of  12 degrees of freedom as
           vibrations may cause significant error
 Vibrational temperatures:    122.19   203.12   307.34   322.74   339.52
          (Kelvin)            405.11   494.62   504.80   551.60   620.23
                              695.77   798.03  1088.35  1289.10  1340.97
                             1352.17  1397.50  1401.52  1452.08  1496.56
                             1612.08  1700.65  1726.32  1753.33  1899.19
                             1924.52  1966.38  2010.78  2048.05  2057.30
                             2083.14  2137.85  2183.49  2185.92  2195.66
                             2199.82  2209.98  2226.18  4296.10  4318.86
                             4368.54  4375.94  4380.20  4455.13  4464.75
                             4477.94  4481.40  4487.57  4497.07  4533.60
                             4673.54

 Zero-point correction=                           0.174356 (Hartree/Particle)
 Thermal correction to Energy=                    0.182933
 Thermal correction to Enthalpy=                  0.183877
 Thermal correction to Gibbs Free Energy=         0.141909
 Sum of electronic and zero-point Energies=           -236.236380
 Sum of electronic and thermal Energies=              -236.227803
 Sum of electronic and thermal Enthalpies=            -236.226859
 Sum of electronic and thermal Free Energies=         -236.268827

                     E (Thermal)             CV                S
                      KCal/Mol        Cal/Mol-Kelvin    Cal/Mol-Kelvin
 Total                  114.792             31.233             88.330
 Electronic               0.000              0.000              1.377
 Translational            0.889              2.981             39.237
 Rotational               0.889              2.981             26.988
 Vibrational            113.015             25.272             20.727
 Vibration     1          0.601              1.960              3.774
 Vibration     2          0.615              1.912              2.788
 Vibration     3          0.644              1.820              2.013
 Vibration     4          0.649              1.804              1.924
 Vibration     5          0.655              1.786              1.833
 Vibration     6          0.681              1.708              1.524
 Vibration     7          0.723              1.588              1.195
 Vibration     8          0.728              1.574              1.162
 Vibration     9          0.753              1.506              1.026
 Vibration    10          0.792              1.403              0.855
 Vibration    11          0.840              1.286              0.700
 Vibration    12          0.910              1.129              0.535

 Optimization completed.
    -- Stationary point found.
 Normal termination of Gaussian 09 at Sat Nov  7 02:26:58 2015.
