 Gaussian 09, Revision A.01,
 Gaussian 09:  EM64L-G09RevA.01  8-May-2009

 ----------
 #p PM6 opt
 ----------

 ----------------------------------
 using PM6 to do opt and freq calc.
 ----------------------------------
 Symbolic Z-matrix:
 Charge =  0 Multiplicity = 1

 SCF Done:  E(RPM6) = -0.527703210300E-01 A.U. after   12 cycles
 SCF Done:  E(RPM6) = -0.549816136026E-01 A.U. after   15 cycles
 SCF Done:  E(RPM6) = -0.552161095376E-01 A.U. after   10 cycles
 SCF Done:  E(RPM6) = -0.553118999732E-01 A.U. after   10 cycles
 SCF Done:  E(RPM6) = -0.553702227689E-01 A.U. after   11 cycles
 SCF Done:  E(RPM6) = -0.553916991980E-01 A.U. after   11 cycles
 SCF Done:  E(RPM6) = -0.553996457076E-01 A.U. after   15 cycles
 SCF Done:  E(RPM6) = -0.554025768825E-01 A.U. after    9 cycles
 SCF Done:  E(RPM6) = -0.554035521158E-01 A.U. after    8 cycles
 SCF Done:  E(RPM6) = -0.554037719568E-01 A.U. after    8 cycles
 SCF Done:  E(RPM6) = -0.554038020129E-01 A.U. after    7 cycles
 Optimization completed.
    -- Stationary point found.

                         Standard orientation:
 ---------------------------------------------------------------------
 Center     Atomic      Atomic             Coordinates (Angstroms)
 Number     Number       Type             X           Y           Z
 ---------------------------------------------------------------------
      1          6           0        2.445829    0.847691    0.282126
      2          1           0        1.914951    1.131623    1.198097
      3          1           0        2.300897    1.657889   -0.441292
      4          1           0        3.514056    0.803552    0.519884
      5          6           0        1.944249   -0.487477   -0.264081
      6          1           0        2.527707   -0.757451   -1.166767
      7          1           0        2.143417   -1.290709    0.472027
      8          6           0        0.450781   -0.464413   -0.620814
      9          1           0        0.212535   -1.342189   -1.252236
     10          1           0        0.227091    0.422469   -1.244685
     11          6           0       -0.450780   -0.464410    0.620815
     12          1           0       -0.227091    0.422477    1.244681
     13          1           0       -0.212534   -1.342181    1.252242
     14          6           0       -1.944249   -0.487476    0.264082
     15          1           0       -2.527707   -0.757449    1.166769
     16          1           0       -2.143415   -1.290711   -0.472024
     17          6           0       -2.445831    0.847689   -0.282128
     18          1           0       -1.914944    1.131626   -1.198093
     19          1           0       -3.514055    0.803546   -0.519897
     20          1           0       -2.300910    1.657887    0.441293
 ---------------------------------------------------------------------

 The electronic state is 1-A.
 Alpha  occ. eigenvalues --   -1.05711  -0.99695  -0.90310  -0.83365  -0.75316
 Alpha  occ. eigenvalues --   -0.71443  -0.58029  -0.56390  -0.55432  -0.53309
 Alpha  occ. eigenvalues --   -0.49840  -0.48608  -0.47734  -0.45011  -0.44134
 Alpha  occ. eigenvalues --   -0.42940  -0.41487  -0.40680  -0.40210
 Alpha virt. eigenvalues --    0.15387   0.16566   0.16644   0.17377   0.18045
 Alpha virt. eigenvalues --    0.21090   0.21239   0.21435   0.22167   0.22336
 Alpha virt. eigenvalues --    0.22949   0.23064   0.23280   0.24170   0.24499

 Mulliken atomic charges:
              1
     1  C   -0.458864
     2  H    0.146848
     3  H    0.145506
     4  H    0.141151
     5  C   -0.223556
     6  H    0.122505
     7  H    0.125962
     8  C   -0.259476
     9  H    0.125873
    10  H    0.134052
    11  C   -0.259476
    12  H    0.134052
    13  H    0.125873
    14  C   -0.223556
    15  H    0.122505
    16  H    0.125962
    17  C   -0.458864
    18  H    0.146848
    19  H    0.141151
    20  H    0.145506
 Sum of Mulliken atomic charges =   0.00000

 Dipole moment (field-independent basis, Debye):
    X=              0.0000    Y=              0.0812    Z=              0.0000  Tot=              0.0812
 N-N= 1.644432539541D+02 E-N=-2.498922366807D+02  KE=-5.611218650078D+01
 Leave Link  601 at Mon Sep 14 19:14:31 2015, MaxMem=  402653184 cpu:       0.0
 (Enter /share/apps/g09/l9999.exe)
 1\1\GINC-COMPUTE-0-3\FOpt\RPM6\ZDO\C6H14\HETANJIN\14-Sep-2015\0\\#p PM
 6 opt\\using PM6 to do opt and freq calc.\\0,1\C,0.9658841344,2.746471
 2635,0.7428883511\H,1.0370801592,1.8421155342,1.3581312701\H,0.2349043
 914,3.4077961977,1.2215098573\H,1.939028411,3.2477446103,0.7789605484\
 C,0.5660086702,2.4157480607,-0.6935373318\H,0.5398963255,3.3484553247,
 -1.2914726934\H,1.344619948,1.7821742952,-1.1615696667\C,-0.8000123079
 ,1.7206766872,-0.7889376958\H,-1.1547294924,1.7548373021,-1.8372471717

 Normal termination of Gaussian 09 at Mon Sep 14 19:14:37 2015.
