 Gaussian 09, Revision D.01,
 Gaussian 09:  ES64L-G09RevD.01 24-Apr-2013

 -----------------
 #p M062X/def2TZVP
 -----------------

 ---------------------------------------------
 using B3LYP/6-31G(d) to do opt and freq calc.
 ---------------------------------------------
 Symbolic Z-matrix:
 Charge =  0 Multiplicity = 1

                         Standard orientation:
 ---------------------------------------------------------------------
 Center     Atomic      Atomic             Coordinates (Angstroms)
 Number     Number       Type             X           Y           Z
 ---------------------------------------------------------------------
      1          6           0        1.618032    0.989661   -0.000046
      2          1           0        1.593672    1.636429    0.885962
      3          1           0        1.593672    1.636347   -0.886113
      4          1           0        2.578316    0.459293   -0.000021
      5          6           0        0.436353   -0.000500    0.000000
      6          6           0       -0.878586    0.823914   -0.000030
      7          1           0       -0.865713    1.486486   -0.877558
      8          1           0       -0.865712    1.486551    0.877447
      9          6           0       -2.193477    0.033880   -0.000001
     10          1           0       -2.289029   -0.605019    0.884964
     11          1           0       -3.048488    0.719808   -0.000012
     12          1           0       -2.289041   -0.605062   -0.884933
     13          6           0        0.528897   -0.885012   -1.258652
     14          1           0       -0.262439   -1.642476   -1.285245
     15          1           0        0.448512   -0.282917   -2.172624
     16          1           0        1.489696   -1.413344   -1.292039
     17          6           0        0.528906   -0.884904    1.258727
     18          1           0        1.489700   -1.413241    1.292148
     19          1           0        0.448537   -0.282728    2.172647
     20          1           0       -0.262436   -1.642360    1.285396
 ---------------------------------------------------------------------

 SCF Done:  E(RM062X) =  -237.035765112     A.U. after   13 cycles

 The electronic state is 1-A.
 Alpha  occ. eigenvalues --  -10.54456 -10.52730 -10.52090 -10.51926 -10.51925
 Alpha  occ. eigenvalues --  -10.51913  -0.92135  -0.82865  -0.77140  -0.77121
 Alpha  occ. eigenvalues --   -0.70609  -0.60203  -0.52588  -0.52449  -0.50197
 Alpha  occ. eigenvalues --   -0.48771  -0.46132  -0.44307  -0.43740  -0.42270
 Alpha  occ. eigenvalues --   -0.41640  -0.40207  -0.37157  -0.36964  -0.36341
 Alpha virt. eigenvalues --    0.05904   0.09450   0.10960   0.11019   0.12047
 Alpha virt. eigenvalues --    0.12123   0.12818   0.14714   0.16257   0.16516
 Alpha virt. eigenvalues --    0.17023   0.18496   0.18923   0.19749   0.19765

 Mulliken charges:
               1
     1  C   -0.426213
     2  H    0.146405
     3  H    0.146405
     4  H    0.145267
     5  C   -0.012139
     6  C   -0.248670
     7  H    0.141747
     8  H    0.141747
     9  C   -0.453664
    10  H    0.144040
    11  H    0.146423
    12  H    0.144041
    13  C   -0.455804
    14  H    0.150170
    15  H    0.149858
    16  H    0.148080
    17  C   -0.455802
    18  H    0.148080
    19  H    0.149858
    20  H    0.150169
 Sum of Mulliken charges =   0.00000

 Dipole moment (field-independent basis, Debye):
    X=             -0.0378    Y=              0.0470    Z=              0.0000  Tot=              0.0603
 Quadrupole moment (field-independent basis, Debye-Ang):
   XX=            -42.5108   YY=            -42.4835   ZZ=            -42.3407
   XY=             -0.3982   XZ=              0.0000   YZ=              0.0000

 1\1\GINC-COMPUTE-0-8\SP\RM062X\def2TZVP\C6H14\HETANJIN\05-Oct-2015\0\\
 #p M062X/def2TZVP\\using B3LYP/6-31G(d) to do opt and freq calc.\\0,1\
 C,0,1.618032,0.989661,-0.000046\H,0,1.593672,1.636429,0.885962\H,0,1.5
 93672,1.636347,-0.886113\H,0,2.578316,0.459293,-0.000021\C,0,0.436353,
 -0.0005,0.\C,0,-0.878586,0.823914,-0.00003\H,0,-0.865713,1.486486,-0.8
 77558\H,0,-0.865712,1.486551,0.877447\C,0,-2.193477,0.03388,-0.000001\
 H,0,-2.289029,-0.605019,0.884964\H,0,-3.048488,0.719808,-0.000012\H,0,
 -2.289041,-0.605062,-0.884933\C,0,0.528897,-0.885012,-1.258652\H,0,-0.

 Normal termination of Gaussian 09 at Mon Oct  5 16:20:57 2015.
