 Gaussian 09, Revision D.01,
 Gaussian 09:  ES64L-G09RevD.01 24-Apr-2013

 -----------------
 #p M062X/def2TZVP
 -----------------

 ---------------------------------------------
 using B3LYP/6-31G(d) to do opt and freq calc.
 ---------------------------------------------
 Symbolic Z-matrix:
 Charge =  0 Multiplicity = 1

                         Standard orientation:
 ---------------------------------------------------------------------
 Center     Atomic      Atomic             Coordinates (Angstroms)
 Number     Number       Type             X           Y           Z
 ---------------------------------------------------------------------
      1          6           0       -2.585432   -0.173063   -0.291849
      2          1           0       -2.569458   -0.210592   -1.388477
      3          1           0       -2.798673    0.860561    0.001587
      4          1           0       -3.426358   -0.788597    0.047878
      5          6           0       -1.264298   -0.681121    0.297502
      6          1           0       -1.305088   -0.618252    1.395357
      7          1           0       -1.161923   -1.749281    0.059899
      8          6           0        0.000001    0.051166   -0.198829
      9          1           0        0.000003    0.001388   -1.300329
     10          6           0        1.264300   -0.681115    0.297508
     11          1           0        1.161927   -1.749278    0.059916
     12          1           0        1.305092   -0.618234    1.395362
     13          6           0        2.585433   -0.173062   -0.291851
     14          1           0        2.798671    0.860567    0.001568
     15          1           0        3.426361   -0.788588    0.047886
     16          1           0        2.569459   -0.210609   -1.388479
     17          6           0       -0.000004    1.533363    0.207287
     18          1           0       -0.880930    2.058937   -0.175897
     19          1           0       -0.000012    1.636037    1.301012
     20          1           0        0.880926    2.058939   -0.175885
 ---------------------------------------------------------------------

 SCF Done:  E(RM062X) =  -237.032345901     A.U. after   13 cycles

 The electronic state is 1-A.
 Alpha  occ. eigenvalues --  -10.53421 -10.52686 -10.52684 -10.52091 -10.52091
 Alpha  occ. eigenvalues --  -10.51914  -0.91129  -0.84304  -0.79928  -0.73882
 Alpha  occ. eigenvalues --   -0.67941  -0.63166  -0.53605  -0.52268  -0.49718
 Alpha  occ. eigenvalues --   -0.48102  -0.45918  -0.45120  -0.43488  -0.42311
 Alpha  occ. eigenvalues --   -0.40923  -0.39292  -0.37391  -0.36866  -0.36318
 Alpha virt. eigenvalues --    0.06616   0.08914   0.09596   0.10071   0.12358
 Alpha virt. eigenvalues --    0.13139   0.13363   0.14943   0.15082   0.15674
 Alpha virt. eigenvalues --    0.16509   0.16961   0.18451   0.18760   0.21210

 Mulliken charges:
               1
     1  C   -0.443735
     2  H    0.138249
     3  H    0.141188
     4  H    0.143902
     5  C   -0.243996
     6  H    0.136850
     7  H    0.132354
     8  C   -0.115594
     9  H    0.129114
    10  C   -0.243996
    11  H    0.132354
    12  H    0.136850
    13  C   -0.443734
    14  H    0.141187
    15  H    0.143902
    16  H    0.138248
    17  C   -0.461052
    18  H    0.147420
    19  H    0.143072
    20  H    0.147419
 Sum of Mulliken charges =   0.00000

 Dipole moment (field-independent basis, Debye):
    X=              0.0000    Y=             -0.1104    Z=             -0.0233  Tot=              0.1129
 Quadrupole moment (field-independent basis, Debye-Ang):
   XX=            -42.7510   YY=            -42.2908   ZZ=            -41.9849
   XY=              0.0000   XZ=              0.0000   YZ=              0.2060

 1\1\GINC-COMPUTE-0-7\SP\RM062X\def2TZVP\C6H14\HETANJIN\05-Oct-2015\0\\
 #p M062X/def2TZVP\\using B3LYP/6-31G(d) to do opt and freq calc.\\0,1\
 C,0,-2.585432,-0.173063,-0.291849\H,0,-2.569458,-0.210592,-1.388477\H,
 0,-2.798673,0.860561,0.001587\H,0,-3.426358,-0.788597,0.047878\C,0,-1.
 264298,-0.681121,0.297502\H,0,-1.305088,-0.618252,1.395357\H,0,-1.1619
 23,-1.749281,0.059899\C,0,0.000001,0.051166,-0.198829\H,0,0.000003,0.0
 01388,-1.300329\C,0,1.2643,-0.681115,0.297508\H,0,1.161927,-1.749278,0
 .059916\H,0,1.305092,-0.618234,1.395362\C,0,2.585433,-0.173062,-0.2918

 Normal termination of Gaussian 09 at Mon Oct  5 16:20:13 2015.
