 Gaussian 09, Revision D.01,
 Gaussian 09:  ES64L-G09RevD.01 24-Apr-2013

 -----------------
 #p M062X/def2TZVP
 -----------------

 ---------------------------------------------
 using B3LYP/6-31G(d) to do opt and freq calc.
 ---------------------------------------------
 Symbolic Z-matrix:
 Charge =  0 Multiplicity = 1

                         Standard orientation:
 ---------------------------------------------------------------------
 Center     Atomic      Atomic             Coordinates (Angstroms)
 Number     Number       Type             X           Y           Z
 ---------------------------------------------------------------------
      1          6           0        1.414227    2.905083    0.000000
      2          1           0        0.900497    3.301499    0.884602
      3          1           0        0.900497    3.301499   -0.884602
      4          1           0        2.434236    3.306282    0.000000
      5          6           0        1.414227    1.372954    0.000000
      6          1           0        1.965398    1.006883   -0.877995
      7          1           0        1.965398    1.006883    0.877995
      8          6           0        0.004893    0.766918    0.000000
      9          1           0       -0.546827    1.134100   -0.878477
     10          1           0       -0.546827    1.134100    0.878477
     11          6           0       -0.004893   -0.766918    0.000000
     12          1           0        0.546827   -1.134100    0.878477
     13          1           0        0.546827   -1.134100   -0.878477
     14          6           0       -1.414227   -1.372954    0.000000
     15          1           0       -1.965398   -1.006883   -0.877995
     16          1           0       -1.965398   -1.006883    0.877995
     17          6           0       -1.414227   -2.905083    0.000000
     18          1           0       -0.900497   -3.301499    0.884602
     19          1           0       -2.434236   -3.306282    0.000000
     20          1           0       -0.900497   -3.301499   -0.884602
 ---------------------------------------------------------------------

 SCF Done:  E(RM062X) =  -237.032115734     A.U. after   12 cycles

 The electronic state is 1-AG.
 Alpha  occ. eigenvalues --  -10.52767 -10.52767 -10.52598 -10.52562 -10.52083
 Alpha  occ. eigenvalues --  -10.52083  -0.90247  -0.86175  -0.79870  -0.72332
 Alpha  occ. eigenvalues --   -0.66227  -0.65414  -0.54838  -0.51251  -0.50026
 Alpha  occ. eigenvalues --   -0.48544  -0.46271  -0.44178  -0.43942  -0.41471
 Alpha  occ. eigenvalues --   -0.39915  -0.38483  -0.38125  -0.37691  -0.36405
 Alpha virt. eigenvalues --    0.06648   0.07891   0.09991   0.10409   0.10652
 Alpha virt. eigenvalues --    0.13806   0.14418   0.14457   0.15504   0.15856
 Alpha virt. eigenvalues --    0.16234   0.16348   0.19078   0.19302   0.20023

 Mulliken charges:
               1
     1  C   -0.426648
     2  H    0.135864
     3  H    0.135864
     4  H    0.141199
     5  C   -0.237441
     6  H    0.129210
     7  H    0.129210
     8  C   -0.274331
     9  H    0.133537
    10  H    0.133537
    11  C   -0.274331
    12  H    0.133537
    13  H    0.133537
    14  C   -0.237441
    15  H    0.129210
    16  H    0.129210
    17  C   -0.426648
    18  H    0.135864
    19  H    0.141199
    20  H    0.135864
 Sum of Mulliken charges =   0.00000

 Dipole moment (field-independent basis, Debye):
    X=              0.0000    Y=              0.0000    Z=              0.0000  Tot=              0.0000
 Quadrupole moment (field-independent basis, Debye-Ang):
   XX=            -42.2881   YY=            -43.5004   ZZ=            -41.2960
   XY=              0.0500   XZ=              0.0000   YZ=              0.0000

 Normal termination of Gaussian 09 at Mon Oct  5 16:18:35 2015.
