 Gaussian 09, Revision D.01,
 Gaussian 09:  ES64L-G09RevD.01 24-Apr-2013

 -----------------
 #p M062X/def2TZVP
 -----------------

 ---------------------------------------------
 using B3LYP/6-31G(d) to do opt and freq calc.
 ---------------------------------------------
 Symbolic Z-matrix:
 Charge =  0 Multiplicity = 1

                         Standard orientation:
 ---------------------------------------------------------------------
 Center     Atomic      Atomic             Coordinates (Angstroms)
 Number     Number       Type             X           Y           Z
 ---------------------------------------------------------------------
      1          6           0        2.158797   -1.038262    0.033294
      2          1           0        1.927533   -2.029222   -0.375554
      3          1           0        2.248004   -1.140761    1.122907
      4          1           0        3.140068   -0.736400   -0.352089
      5          6           0        1.075129   -0.013247   -0.333943
      6          1           0        1.027373    0.044919   -1.432844
      7          6           0       -0.305208   -0.482864    0.167098
      8          1           0       -0.293645   -0.515801    1.267925
      9          1           0       -0.461374   -1.520579   -0.163436
     10          6           0       -1.498621    0.360991   -0.301923
     11          1           0       -1.481223    0.432726   -1.399129
     12          1           0       -1.403322    1.388403    0.072512
     13          6           0       -2.846192   -0.213221    0.149098
     14          1           0       -2.906213   -0.270618    1.243053
     15          1           0       -3.681827    0.405542   -0.197689
     16          1           0       -2.996731   -1.226889   -0.242561
     17          6           0        1.452038    1.379337    0.194904
     18          1           0        0.736890    2.147561   -0.117998
     19          1           0        1.487561    1.382710    1.292643
     20          1           0        2.441246    1.682004   -0.168912
 ---------------------------------------------------------------------

 SCF Done:  E(RM062X) =  -237.033299935     A.U. after   13 cycles

 The electronic state is 1-A.
 Alpha  occ. eigenvalues --  -10.53584 -10.52777 -10.52526 -10.52125 -10.51971
 Alpha  occ. eigenvalues --  -10.51969  -0.90981  -0.85530  -0.76968  -0.76233
 Alpha  occ. eigenvalues --   -0.67367  -0.63424  -0.54084  -0.51179  -0.50554
 Alpha  occ. eigenvalues --   -0.48187  -0.45936  -0.44368  -0.44011  -0.42390
 Alpha  occ. eigenvalues --   -0.40646  -0.39112  -0.37477  -0.37189  -0.36438
 Alpha virt. eigenvalues --    0.06597   0.08419   0.09730   0.10285   0.12338
 Alpha virt. eigenvalues --    0.13193   0.13408   0.14473   0.15528   0.15769
 Alpha virt. eigenvalues --    0.16735   0.17313   0.18699   0.19167   0.20140

 Mulliken charges:
               1
     1  C   -0.429585
     2  H    0.140797
     3  H    0.139988
     4  H    0.142200
     5  C   -0.096657
     6  H    0.125578
     7  C   -0.287803
     8  H    0.142762
     9  H    0.136202
    10  C   -0.250796
    11  H    0.131581
    12  H    0.133533
    13  C   -0.427556
    14  H    0.136193
    15  H    0.141429
    16  H    0.136732
    17  C   -0.444287
    18  H    0.146236
    19  H    0.140457
    20  H    0.142997
 Sum of Mulliken charges =   0.00000

 Dipole moment (field-independent basis, Debye):
    X=             -0.0194    Y=              0.0381    Z=             -0.1302  Tot=              0.1370
 Quadrupole moment (field-independent basis, Debye-Ang):
   XX=            -42.8295   YY=            -42.5635   ZZ=            -41.8316
   XY=             -0.0919   XZ=             -0.0696   YZ=              0.2313

 1\1\GINC-COMPUTE-0-5\SP\RM062X\def2TZVP\C6H14\HETANJIN\05-Oct-2015\0\\
 #p M062X/def2TZVP\\using B3LYP/6-31G(d) to do opt and freq calc.\\0,1\
 C,0,2.158797,-1.038262,0.033294\H,0,1.927533,-2.029222,-0.375554\H,0,2
 .248004,-1.140761,1.122907\H,0,3.140068,-0.7364,-0.352089\C,0,1.075129
 ,-0.013247,-0.333943\H,0,1.027373,0.044919,-1.432844\C,0,-0.305208,-0.
 482864,0.167098\H,0,-0.293645,-0.515801,1.267925\H,0,-0.461374,-1.5205
 79,-0.163436\C,0,-1.498621,0.360991,-0.301923\H,0,-1.481223,0.432726,-
 1.399129\H,0,-1.403322,1.388403,0.072512\C,0,-2.846192,-0.213221,0.149

 Normal termination of Gaussian 09 at Mon Oct  5 16:19:41 2015.
