 Gaussian 09, Revision D.01,
 Gaussian 09:  ES64L-G09RevD.01 24-Apr-2013

 -----------------
 #p M062X/def2TZVP
 -----------------

 ---------------------------------------------
 using B3LYP/6-31G(d) to do opt and freq calc.
 ---------------------------------------------
 Symbolic Z-matrix:
 Charge =  0 Multiplicity = 1

                         Standard orientation:
 ---------------------------------------------------------------------
 Center     Atomic      Atomic             Coordinates (Angstroms)
 Number     Number       Type             X           Y           Z
 ---------------------------------------------------------------------
      1          6           0        0.000010    1.518429    1.254759
      2          1           0        0.349148    1.042070    2.175866
      3          1           0       -1.085003    1.664723    1.342944
      4          1           0        0.462302    2.511266    1.204222
      5          6           0        0.342970    0.696651   -0.000006
      6          1           0        1.431409    0.522493   -0.000015
      7          6           0       -0.342970   -0.696651   -0.000006
      8          1           0       -1.431409   -0.522493   -0.000015
      9          6           0        0.000010   -1.518447   -1.254754
     10          1           0        1.085024   -1.664732   -1.342928
     11          1           0       -0.462273   -2.511288   -1.204204
     12          1           0       -0.349127   -1.042109   -2.175873
     13          6           0       -0.000010    1.518447   -1.254754
     14          1           0        0.349127    1.042109   -2.175873
     15          1           0       -1.085024    1.664732   -1.342928
     16          1           0        0.462273    2.511288   -1.204204
     17          6           0       -0.000010   -1.518429    1.254759
     18          1           0        1.085003   -1.664723    1.342944
     19          1           0       -0.349148   -1.042070    2.175866
     20          1           0       -0.462302   -2.511266    1.204222
 ---------------------------------------------------------------------

 SCF Done:  E(RM062X) =  -237.033491136     A.U. after   13 cycles

 The electronic state is 1-A.
 Alpha  occ. eigenvalues --  -10.53628 -10.53595 -10.51950 -10.51950 -10.51949
 Alpha  occ. eigenvalues --  -10.51949  -0.91612  -0.84069  -0.78064  -0.75525
 Alpha  occ. eigenvalues --   -0.69026  -0.62537  -0.52496  -0.52300  -0.49613
 Alpha  occ. eigenvalues --   -0.48660  -0.45464  -0.45059  -0.43893  -0.42306
 Alpha  occ. eigenvalues --   -0.41450  -0.39863  -0.37432  -0.36761  -0.36208
 Alpha virt. eigenvalues --    0.06652   0.09083   0.09724   0.09939   0.11709
 Alpha virt. eigenvalues --    0.13601   0.14285   0.14511   0.16339   0.16531
 Alpha virt. eigenvalues --    0.16819   0.16937   0.17860   0.18902   0.19078

 Mulliken charges:
               1
     1  C   -0.454381
     2  H    0.149570
     3  H    0.145390
     4  H    0.142489
     5  C   -0.096232
     6  H    0.130096
     7  C   -0.096232
     8  H    0.130096
     9  C   -0.454379
    10  H    0.145389
    11  H    0.142488
    12  H    0.149570
    13  C   -0.454379
    14  H    0.149570
    15  H    0.145389
    16  H    0.142488
    17  C   -0.454381
    18  H    0.145390
    19  H    0.149570
    20  H    0.142489
 Sum of Mulliken charges =   0.00000

 Dipole moment (field-independent basis, Debye):
    X=              0.0000    Y=              0.0000    Z=              0.0000  Tot=              0.0000
 Quadrupole moment (field-independent basis, Debye-Ang):
   XX=            -41.8475   YY=            -42.5461   ZZ=            -42.9180
   XY=              0.3736   XZ=              0.0000   YZ=              0.0000

 Normal termination of Gaussian 09 at Mon Oct  5 16:20:37 2015.
