 Gaussian 09, Revision A.01,
 Gaussian 09:  EM64L-G09RevA.01  8-May-2009

 ----------
 #p PM6 opt
 ----------

 ----------------------------------
 using PM6 to do opt and freq calc.
 ----------------------------------
 Symbolic Z-matrix:
 Charge =  0 Multiplicity = 1

 SCF Done:  E(RPM6) = -0.527365763091E-01 A.U. after   13 cycles
 SCF Done:  E(RPM6) = -0.554496437361E-01 A.U. after   11 cycles
 SCF Done:  E(RPM6) = -0.556826637468E-01 A.U. after   11 cycles
 SCF Done:  E(RPM6) = -0.557475509234E-01 A.U. after   11 cycles
 SCF Done:  E(RPM6) = -0.557641020212E-01 A.U. after   10 cycles
 SCF Done:  E(RPM6) = -0.557734034994E-01 A.U. after   10 cycles
 SCF Done:  E(RPM6) = -0.557756389457E-01 A.U. after    9 cycles
 SCF Done:  E(RPM6) = -0.557767514694E-01 A.U. after    9 cycles
 SCF Done:  E(RPM6) = -0.557768890422E-01 A.U. after    8 cycles
 SCF Done:  E(RPM6) = -0.557769611160E-01 A.U. after    8 cycles
 SCF Done:  E(RPM6) = -0.557769887257E-01 A.U. after    7 cycles
 Optimization completed.
    -- Stationary point found.

                         Standard orientation:
 ---------------------------------------------------------------------
 Center     Atomic      Atomic             Coordinates (Angstroms)
 Number     Number       Type             X           Y           Z
 ---------------------------------------------------------------------
      1          6           0        2.432322   -0.432462   -0.045853
      2          1           0        2.735891   -0.406062    1.006572
      3          1           0        2.694374    0.536178   -0.486780
      4          1           0        3.040375   -1.195133   -0.544627
      5          6           0        0.942456   -0.732442   -0.195502
      6          1           0        0.679571   -0.796280   -1.268755
      7          1           0        0.725428   -1.733188    0.226374
      8          6           0        0.054188    0.322166    0.498109
      9          1           0        0.491798    0.533143    1.507576
     10          6           0       -1.375061   -0.217463    0.732392
     11          1           0       -1.960948    0.550669    1.275150
     12          1           0       -1.323987   -1.089952    1.413139
     13          6           0       -2.119939   -0.611806   -0.540274
     14          1           0       -1.615912   -1.428582   -1.068455
     15          1           0       -3.138377   -0.945609   -0.313238
     16          1           0       -2.196593    0.230304   -1.237758
     17          6           0        0.030972    1.638714   -0.287567
     18          1           0        1.038094    2.057216   -0.387563
     19          1           0       -0.366588    1.498333   -1.298577
     20          1           0       -0.592762    2.388712    0.209110
 ---------------------------------------------------------------------

 The electronic state is 1-A.
 Alpha  occ. eigenvalues --   -1.06466  -0.97227  -0.91588  -0.83476  -0.78105
 Alpha  occ. eigenvalues --   -0.68325  -0.58067  -0.56160  -0.55501  -0.52572
 Alpha  occ. eigenvalues --   -0.48764  -0.48322  -0.47738  -0.46559  -0.45404
 Alpha  occ. eigenvalues --   -0.42533  -0.40809  -0.40687  -0.40184
 Alpha virt. eigenvalues --    0.15455   0.16218   0.16540   0.17748   0.18484
 Alpha virt. eigenvalues --    0.21223   0.21395   0.21956   0.22135   0.22549
 Alpha virt. eigenvalues --    0.22682   0.23105   0.23344   0.23606   0.24357

 Mulliken atomic charges:
              1
     1  C   -0.458750
     2  H    0.144018
     3  H    0.146154
     4  H    0.141830
     5  C   -0.253861
     6  H    0.132327
     7  H    0.128239
     8  C   -0.019313
     9  H    0.110879
    10  C   -0.261560
    11  H    0.128342
    12  H    0.126329
    13  C   -0.449734
    14  H    0.144505
    15  H    0.139381
    16  H    0.146539
    17  C   -0.487239
    18  H    0.146727
    19  H    0.150213
    20  H    0.144972
 Sum of Mulliken atomic charges =   0.00000

 Dipole moment (field-independent basis, Debye):
    X=             -0.0034    Y=              0.0308    Z=             -0.0647  Tot=              0.0717
 N-N= 1.683648508117D+02 E-N=-2.576250038499D+02  KE=-5.624648566995D+01
 Leave Link  601 at Mon Sep 14 19:15:11 2015, MaxMem=  402653184 cpu:       0.0
 (Enter /share/apps/g09/l9999.exe)
 1\1\GINC-COMPUTE-0-7\FOpt\RPM6\ZDO\C6H14\HETANJIN\14-Sep-2015\0\\#p PM
 6 opt\\using PM6 to do opt and freq calc.\\0,1\C,-2.5761260366,-0.1711
 666262,-0.5681479099\H,-2.4356815705,-0.253836487,-1.6516091415\H,-2.7
 467091034,0.8871737151,-0.3397414296\H,-3.4930056116,-0.7137080264,-0.
 3128981813\C,-1.3777015715,-0.724794522,0.1995498396\H,-1.5714063986,-
 0.6672493587,1.2877695997\H,-1.2622851157,-1.8025425496,-0.0278530513\
 C,-0.0660457873,0.0156650842,-0.137484761\H,-0.0172849292,0.1443530084

 Normal termination of Gaussian 09 at Mon Sep 14 19:15:13 2015.
