 Gaussian 09, Revision A.01,
 Gaussian 09:  EM64L-G09RevA.01  8-May-2009

 -----------------------------------------
 #p B3LYP/6-31G(d) opt=tight int=ultrafine
 -----------------------------------------

 ---------------------------------------------
 using B3LYP/6-31G(d) to do opt and freq calc.
 ---------------------------------------------
 Symbolic Z-matrix:
 Charge =  0 Multiplicity = 1

 SCF Done:  E(RB3LYP) =  -237.084337845     A.U. after   11 cycles
 SCF Done:  E(RB3LYP) =  -237.085404026     A.U. after    9 cycles
 SCF Done:  E(RB3LYP) =  -237.085479728     A.U. after    8 cycles
 SCF Done:  E(RB3LYP) =  -237.085480277     A.U. after    6 cycles
 SCF Done:  E(RB3LYP) =  -237.085480317     A.U. after    5 cycles
 Optimization completed.
    -- Stationary point found.

                         Standard orientation:
 ---------------------------------------------------------------------
 Center     Atomic      Atomic             Coordinates (Angstroms)
 Number     Number       Type             X           Y           Z
 ---------------------------------------------------------------------
      1          6           0        1.414252    2.905068    0.000000
      2          1           0        0.900511    3.301495    0.884598
      3          1           0        0.900511    3.301495   -0.884598
      4          1           0        2.434263    3.306290    0.000000
      5          6           0        1.414252    1.372949    0.000000
      6          1           0        1.965397    1.006856   -0.878004
      7          1           0        1.965397    1.006856    0.878004
      8          6           0        0.004876    0.766911    0.000000
      9          1           0       -0.546821    1.134116   -0.878485
     10          1           0       -0.546821    1.134116    0.878485
     11          6           0       -0.004876   -0.766911    0.000000
     12          1           0        0.546821   -1.134116    0.878485
     13          1           0        0.546821   -1.134116   -0.878485
     14          6           0       -1.414252   -1.372949    0.000000
     15          1           0       -1.965397   -1.006856   -0.878004
     16          1           0       -1.965397   -1.006856    0.878004
     17          6           0       -1.414252   -2.905068    0.000000
     18          1           0       -0.900511   -3.301495    0.884598
     19          1           0       -2.434263   -3.306290    0.000000
     20          1           0       -0.900511   -3.301495   -0.884598
 ---------------------------------------------------------------------

 The electronic state is 1-AG.
 Alpha  occ. eigenvalues --  -10.17591 -10.17591 -10.17369 -10.17348 -10.16989
 Alpha  occ. eigenvalues --  -10.16989  -0.79888  -0.76125  -0.70301  -0.63362
 Alpha  occ. eigenvalues --   -0.57765  -0.57014  -0.47316  -0.44030  -0.42895
 Alpha  occ. eigenvalues --   -0.41548  -0.39476  -0.37566  -0.37363  -0.35093
 Alpha  occ. eigenvalues --   -0.33674  -0.32372  -0.32022  -0.31661  -0.30428
 Alpha virt. eigenvalues --    0.09278   0.10458   0.12310   0.13238   0.13694
 Alpha virt. eigenvalues --    0.16287   0.16860   0.16942   0.18623   0.19181
 Alpha virt. eigenvalues --    0.19436   0.20005   0.20559   0.20671   0.22951

 Mulliken atomic charges:
              1
     1  C   -0.441229
     2  H    0.140805
     3  H    0.140805
     4  H    0.140918
     5  C   -0.246718
     6  H    0.129569
     7  H    0.129569
     8  C   -0.245280
     9  H    0.125781
    10  H    0.125781
    11  C   -0.245280
    12  H    0.125781
    13  H    0.125781
    14  C   -0.246718
    15  H    0.129569
    16  H    0.129569
    17  C   -0.441229
    18  H    0.140805
    19  H    0.140918
    20  H    0.140805
 Sum of Mulliken atomic charges =   0.00000

 Dipole moment (field-independent basis, Debye):
    X=              0.0000    Y=              0.0000    Z=              0.0000  Tot=              0.0000
 Quadrupole moment (field-independent basis, Debye-Ang):
   XX=            -41.5786   YY=            -42.5258   ZZ=            -40.7720
   XY=             -0.1100   XZ=              0.0000   YZ=              0.0000

 Normal termination of Gaussian 09 at Fri Sep 18 13:21:22 2015.
