 Gaussian 09, Revision D.01,
 Gaussian 09:  ES64L-G09RevD.01 24-Apr-2013

 ----------------------------------------------
 #p B3LYP/6-31G(d) opt=tight int=ultrafine freq
 ----------------------------------------------

 ---------------------------------------------
 using B3LYP/6-31G(d) to do opt and freq calc.
 ---------------------------------------------
 Symbolic Z-matrix:
 Charge =  0 Multiplicity = 2

 SCF Done:  E(UB3LYP) =  -236.401744770     A.U. after   14 cycles
 SCF Done:  E(UB3LYP) =  -236.409901216     A.U. after   14 cycles
 SCF Done:  E(UB3LYP) =  -236.411993058     A.U. after   13 cycles
 SCF Done:  E(UB3LYP) =  -236.412154845     A.U. after   11 cycles
 SCF Done:  E(UB3LYP) =  -236.412189374     A.U. after   10 cycles
 SCF Done:  E(UB3LYP) =  -236.412201694     A.U. after   10 cycles
 SCF Done:  E(UB3LYP) =  -236.412204616     A.U. after   10 cycles
 SCF Done:  E(UB3LYP) =  -236.412207647     A.U. after    9 cycles
 SCF Done:  E(UB3LYP) =  -236.412209932     A.U. after    9 cycles
 SCF Done:  E(UB3LYP) =  -236.412210352     A.U. after    9 cycles
 SCF Done:  E(UB3LYP) =  -236.412210366     A.U. after    6 cycles
 SCF Done:  E(UB3LYP) =  -236.412210368     A.U. after    6 cycles
 SCF Done:  E(UB3LYP) =  -236.412210368     A.U. after    5 cycles
 Optimization completed.
    -- Stationary point found.
 Normal termination of Gaussian 09 at Sat Nov  7 02:10:30 2015.

 --------------------------------------------------------------------
 #P Geom=AllCheck Guess=TCheck SCRF=Check GenChk UB3LYP/6-31G(d) Freq
 --------------------------------------------------------------------

 Structure from the checkpoint file:  "/state/partition1/Gau-5379.chk"
 ---------------------------------------------
 using B3LYP/6-31G(d) to do opt and freq calc.
 ---------------------------------------------
 Charge =  0 Multiplicity = 2

                         Standard orientation:
 ---------------------------------------------------------------------
 Center     Atomic      Atomic             Coordinates (Angstroms)
 Number     Number       Type             X           Y           Z
 ---------------------------------------------------------------------
      1          6           0        2.232553   -0.939223    0.031860
      2          1           0        2.028100   -1.932974   -0.384587
      3          1           0        2.318840   -1.044645    1.120942
      4          1           0        3.202941   -0.602218   -0.348217
      5          6           0        1.114217    0.057061   -0.333168
      6          1           0        1.066364    0.129735   -1.430228
      7          6           0       -0.261331   -0.486870    0.145442
      8          1           0       -0.249507   -0.561344    1.242999
      9          1           0       -0.378327   -1.513853   -0.232184
     10          6           0       -1.465359    0.352946   -0.296729
     11          1           0       -1.462358    0.440369   -1.393012
     12          1           0       -1.358316    1.374517    0.091315
     13          6           0       -2.804314   -0.232405    0.163803
     14          1           0       -2.851616   -0.300900    1.257722
     15          1           0       -3.646562    0.386074   -0.167274
     16          1           0       -2.955734   -1.242714   -0.236357
     17          6           0        1.409278    1.417709    0.217525
     18          1           0        1.208541    2.323580   -0.345128
     19          1           0        1.727374    1.529062    1.251610
 ---------------------------------------------------------------------

 SCF Done:  E(UB3LYP) =  -236.412210368     A.U. after    1 cycles

 The electronic state is 2-A.
 Alpha  occ. eigenvalues --  -10.18822 -10.18271 -10.17657 -10.17535 -10.17130
 Alpha  occ. eigenvalues --  -10.17015  -0.80839  -0.75584  -0.67297  -0.66690
 Alpha  occ. eigenvalues --   -0.58727  -0.55253  -0.46904  -0.44271  -0.43206
 Alpha  occ. eigenvalues --   -0.40893  -0.39392  -0.38577  -0.37447  -0.34921
 Alpha  occ. eigenvalues --   -0.33607  -0.32139  -0.31950  -0.31486  -0.19588
 Alpha virt. eigenvalues --    0.09392   0.11283   0.12417   0.13599   0.14944
 Alpha virt. eigenvalues --    0.15947   0.16810   0.17617   0.17739   0.19005
 Alpha virt. eigenvalues --    0.19447   0.20888   0.21462   0.23371   0.25924

  Beta  occ. eigenvalues --  -10.18908 -10.17537 -10.17515 -10.17067 -10.17015
  Beta  occ. eigenvalues --  -10.16896  -0.80295  -0.75253  -0.67015  -0.64493
  Beta  occ. eigenvalues --   -0.58482  -0.54536  -0.46567  -0.44038  -0.42819
  Beta  occ. eigenvalues --   -0.40435  -0.39177  -0.38265  -0.37341  -0.34623
  Beta  occ. eigenvalues --   -0.33368  -0.31899  -0.31601  -0.31144
  Beta virt. eigenvalues --   -0.03877   0.09560   0.11428   0.12503   0.14227
  Beta virt. eigenvalues --    0.15368   0.16345   0.17104   0.17702   0.17852
  Beta virt. eigenvalues --    0.19102   0.19527   0.21131   0.21763   0.23518

 Mulliken charges and spin densities:
               1          2
     1  C   -0.445021   0.019974
     2  H    0.139178   0.005185
     3  H    0.139567  -0.001289
     4  H    0.145762   0.000638
     5  C   -0.078305  -0.074571
     6  H    0.124141   0.006444
     7  C   -0.237757   0.047762
     8  H    0.124993  -0.001007
     9  H    0.124371   0.007200
    10  C   -0.249361   0.003055
    11  H    0.127019   0.000890
    12  H    0.136442   0.002377
    13  C   -0.441731  -0.000610
    14  H    0.141288   0.000096
    15  H    0.141113   0.000741
    16  H    0.140459   0.000396
    17  C   -0.310899   1.085194
    18  H    0.142618  -0.051655
    19  H    0.136124  -0.050820
 Sum of Mulliken charges =   0.00000   1.00000

 Dipole moment (field-independent basis, Debye):
    X=             -0.1022    Y=             -0.0711    Z=             -0.0708  Tot=              0.1432
 Quadrupole moment (field-independent basis, Debye-Ang):
   XX=            -42.1748   YY=            -40.6550   ZZ=            -39.9741
   XY=             -0.3181   XZ=              0.3236   YZ=              0.1010

  Exact polarizability:  70.147   0.252  63.080   1.597   0.273  57.344
 Approx polarizability:  79.839   1.246  85.573   2.449   0.850  83.592

                      1                      2                      3
                      A                      A                      A
 Frequencies --     70.7934                94.9874               115.4609
 Red. masses --      1.2128                 1.3910                 2.2156
 Frc consts  --      0.0036                 0.0074                 0.0174
 IR Inten    --      1.4589                 0.4003                 0.0208

                      4                      5                      6
                      A                      A                      A
 Frequencies --    173.8574               242.4589               249.5273
 Red. masses --      2.5570                 1.0594                 1.1195
 Frc consts  --      0.0455                 0.0367                 0.0411
 IR Inten    --      0.0526                 0.0188                 0.0336

                      7                      8                      9
                      A                      A                      A
 Frequencies --    298.4440               372.6471               404.8749
 Red. masses --      1.9856                 2.3519                 1.8635
 Frc consts  --      0.1042                 0.1924                 0.1800
 IR Inten    --      3.3686                 1.2093                14.9504

                     10                     11                     12
                      A                      A                      A
 Frequencies --    437.6376               528.1950               754.9496
 Red. masses --      2.0984                 2.2556                 1.1117
 Frc consts  --      0.2368                 0.3708                 0.3733
 IR Inten    --      0.2055                30.3545                 2.6795

                     13                     14                     15
                      A                      A                      A
 Frequencies --    830.8559               874.9884               903.9509
 Red. masses --      2.2986                 1.2343                 1.9370
 Frc consts  --      0.9349                 0.5568                 0.9326
 IR Inten    --      0.5182                 0.2146                 0.8722

                     16                     17                     18
                      A                      A                      A
 Frequencies --    928.0832               971.4242              1021.5741
 Red. masses --      1.2131                 1.9494                 1.4401
 Frc consts  --      0.6156                 1.0838                 0.8855
 IR Inten    --      1.7319                 1.6259                 1.1550

                     19                     20                     21
                      A                      A                      A
 Frequencies --   1055.5426              1081.2287              1115.0317
 Red. masses --      2.4098                 2.1047                 1.8782
 Frc consts  --      1.5819                 1.4497                 1.3758
 IR Inten    --      0.1093                 0.6600                 3.6055

                     22                     23                     24
                      A                      A                      A
 Frequencies --   1177.0823              1206.6165              1273.8277
 Red. masses --      2.1674                 1.9253                 1.3567
 Frc consts  --      1.7693                 1.6516                 1.2971
 IR Inten    --      0.4968                 0.5106                 0.8501

                     25                     26                     27
                      A                      A                      A
 Frequencies --   1308.8528              1340.3486              1358.0587
 Red. masses --      1.2621                 1.1135                 1.2668
 Frc consts  --      1.2739                 1.1786                 1.3765
 IR Inten    --      4.4453                 0.5725                 0.1407

                     28                     29                     30
                      A                      A                      A
 Frequencies --   1381.9339              1410.1696              1432.0616
 Red. masses --      1.3517                 1.5201                 1.2259
 Frc consts  --      1.5209                 1.7810                 1.4812
 IR Inten    --      2.2788                 1.0798                 1.0438

                     31                     32                     33
                      A                      A                      A
 Frequencies --   1440.5816              1488.2986              1511.4963
 Red. masses --      1.2454                 1.1773                 1.0787
 Frc consts  --      1.5227                 1.5364                 1.4521
 IR Inten    --      1.3449                 0.4855                 0.2955

                     34                     35                     36
                      A                      A                      A
 Frequencies --   1523.0812              1526.1747              1529.4277
 Red. masses --      1.0565                 1.0485                 1.0439
 Frc consts  --      1.4440                 1.4388                 1.4387
 IR Inten    --      0.3394                 5.8181                 7.6373

                     37                     38                     39
                      A                      A                      A
 Frequencies --   1530.9547              1540.2563              3010.3234
 Red. masses --      1.0595                 1.0822                 1.0679
 Frc consts  --      1.4630                 1.5126                 5.7020
 IR Inten    --      0.5820                 2.8881                10.0170

                     40                     41                     42
                      A                      A                      A
 Frequencies --   3012.8542              3026.0102              3039.2002
 Red. masses --      1.0732                 1.0662                 1.0355
 Frc consts  --      5.7394                 5.7524                 5.6355
 IR Inten    --     18.5518                35.0017                37.6617

                     43                     44                     45
                      A                      A                      A
 Frequencies --   3040.2855              3045.6895              3067.9244
 Red. masses --      1.0375                 1.0950                 1.1030
 Frc consts  --      5.6500                 5.9849                 6.1169
 IR Inten    --     30.6439                21.2495                30.6000

                     46                     47                     48
                      A                      A                      A
 Frequencies --   3103.1247              3105.2272              3109.1207
 Red. masses --      1.1019                 1.1027                 1.1018
 Frc consts  --      6.2519                 6.2644                 6.2753
 IR Inten    --     15.5813                92.2419                43.2151

                     49                     50                     51
                      A                      A                      A
 Frequencies --   3117.2201              3155.3679              3256.1846
 Red. masses --      1.1022                 1.0517                 1.1173
 Frc consts  --      6.3100                 6.1697                 6.9798
 IR Inten    --     34.3360                15.9701                17.1883

 - Thermochemistry -
 -------------------
 Temperature   298.150 Kelvin.  Pressure   1.00000 Atm.
 Atom     1 has atomic number  6 and mass  12.00000

 Molecular mass:    85.10173 amu.
 Principal axes and moments of inertia in atomic units:
                           1         2         3
     Eigenvalues --   262.028361048.931481210.30990
           X            0.99998  -0.00604   0.00126
           Y            0.00604   0.99996  -0.00619
           Z           -0.00123   0.00619   0.99998
 This molecule is an asymmetric top.
 Rotational symmetry number  1.
 Rotational temperatures (Kelvin)      0.33055     0.08257     0.07156
 Rotational constants (GHZ):           6.88758     1.72055     1.49114
 Zero-point vibrational energy     458135.5 (Joules/Mol)
                                  109.49700 (Kcal/Mol)
 Warning -- explicit consideration of  11 degrees of freedom as
           vibrations may cause significant error
 Vibrational temperatures:    101.86   136.67   166.12   250.14   348.84
          (Kelvin)            359.01   429.39   536.16   582.52   629.66
                              759.95  1086.20  1195.41  1258.91  1300.58
                             1335.30  1397.66  1469.82  1518.69  1555.65
                             1604.28  1693.56  1736.05  1832.75  1883.14
                             1928.46  1953.94  1988.29  2028.92  2060.41
                             2072.67  2141.33  2174.70  2191.37  2195.82
                             2200.50  2202.70  2216.08  4331.18  4334.82
                             4353.75  4372.73  4374.29  4382.06  4414.05
                             4464.70  4467.72  4473.33  4484.98  4539.86
                             4684.92

 Zero-point correction=                           0.174495 (Hartree/Particle)
 Thermal correction to Energy=                    0.183313
 Thermal correction to Enthalpy=                  0.184257
 Thermal correction to Gibbs Free Energy=         0.140962
 Sum of electronic and zero-point Energies=           -236.237716
 Sum of electronic and thermal Energies=              -236.228898
 Sum of electronic and thermal Enthalpies=            -236.227954
 Sum of electronic and thermal Free Energies=         -236.271248

                     E (Thermal)             CV                S
                      KCal/Mol        Cal/Mol-Kelvin    Cal/Mol-Kelvin
 Total                  115.030             30.810             91.121
 Electronic               0.000              0.000              1.377
 Translational            0.889              2.981             39.237
 Rotational               0.889              2.981             27.300
 Vibrational            113.253             24.849             23.206
 Vibration     1          0.598              1.968              4.131
 Vibration     2          0.603              1.953              3.555
 Vibration     3          0.608              1.937              3.175
 Vibration     4          0.627              1.875              2.393
 Vibration     5          0.659              1.775              1.785
 Vibration     6          0.662              1.764              1.734
 Vibration     7          0.692              1.677              1.426
 Vibration     8          0.744              1.528              1.069
 Vibration     9          0.770              1.460              0.945
 Vibration    10          0.798              1.388              0.834
 Vibration    11          0.883              1.188              0.591

 Optimization completed.
    -- Stationary point found.
 Normal termination of Gaussian 09 at Sat Nov  7 02:17:08 2015.
