 Gaussian 09, Revision A.01,
 Gaussian 09:  EM64L-G09RevA.01  8-May-2009

 -----------------------------------------
 #p B3LYP/6-31G(d) opt=tight int=ultrafine
 -----------------------------------------

 ---------------------------------------------
 using B3LYP/6-31G(d) to do opt and freq calc.
 ---------------------------------------------
 Symbolic Z-matrix:
 Charge =  0 Multiplicity = 1

 SCF Done:  E(RB3LYP) =  -237.082866914     A.U. after   12 cycles
 SCF Done:  E(RB3LYP) =  -237.083953176     A.U. after   10 cycles
 SCF Done:  E(RB3LYP) =  -237.084098939     A.U. after    9 cycles
 SCF Done:  E(RB3LYP) =  -237.084127656     A.U. after    9 cycles
 SCF Done:  E(RB3LYP) =  -237.084131605     A.U. after    8 cycles
 SCF Done:  E(RB3LYP) =  -237.084132021     A.U. after    6 cycles
 SCF Done:  E(RB3LYP) =  -237.084132041     A.U. after    6 cycles
 SCF Done:  E(RB3LYP) =  -237.084132042     A.U. after    4 cycles
 SCF Done:  E(RB3LYP) =  -237.084132042     A.U. after    3 cycles
 Optimization completed.
    -- Stationary point found.

                         Standard orientation:
 ---------------------------------------------------------------------
 Center     Atomic      Atomic             Coordinates (Angstroms)
 Number     Number       Type             X           Y           Z
 ---------------------------------------------------------------------
      1          6           0        2.989033    0.533567    0.114030
      2          1           0        3.063719    0.636784    1.203697
      3          1           0        2.843561    1.537889   -0.302863
      4          1           0        3.951824    0.158078   -0.251294
      5          6           0        1.838485   -0.399928   -0.276040
      6          1           0        1.811356   -0.510085   -1.369614
      7          1           0        2.030576   -1.405457    0.124912
      8          6           0        0.469100    0.087071    0.216050
      9          1           0        0.286138    1.094944   -0.181900
     10          1           0        0.494774    0.192515    1.311455
     11          6           0       -0.683534   -0.848838   -0.173659
     12          1           0       -0.456570   -1.859252    0.195856
     13          1           0       -0.729226   -0.930549   -1.270247
     14          6           0       -2.063650   -0.427682    0.358466
     15          1           0       -2.019122   -0.349040    1.454339
     16          1           0       -2.782490   -1.229407    0.141426
     17          6           0       -2.596228    0.886469   -0.225415
     18          1           0       -2.654095    0.836276   -1.320186
     19          1           0       -3.602419    1.105207    0.150366
     20          1           0       -1.957260    1.738141    0.033453
 ---------------------------------------------------------------------

 The electronic state is 1-A.
 Alpha  occ. eigenvalues --  -10.17623 -10.17586 -10.17383 -10.17306 -10.16986
 Alpha  occ. eigenvalues --  -10.16944  -0.79880  -0.76005  -0.70066  -0.63962
 Alpha  occ. eigenvalues --   -0.58260  -0.56080  -0.46748  -0.44528  -0.43085
 Alpha  occ. eigenvalues --   -0.40884  -0.40331  -0.38125  -0.36361  -0.35374
 Alpha  occ. eigenvalues --   -0.33725  -0.32748  -0.31655  -0.31313  -0.30412
 Alpha virt. eigenvalues --    0.09123   0.10653   0.12220   0.12886   0.14746
 Alpha virt. eigenvalues --    0.16002   0.16330   0.17165   0.18182   0.19168
 Alpha virt. eigenvalues --    0.19259   0.19940   0.20431   0.22263   0.22612

 Mulliken atomic charges:
              1
     1  C   -0.441549
     2  H    0.140794
     3  H    0.140671
     4  H    0.140932
     5  C   -0.246480
     6  H    0.129755
     7  H    0.129331
     8  C   -0.246023
     9  H    0.130676
    10  H    0.124806
    11  C   -0.248665
    12  H    0.126189
    13  H    0.125177
    14  C   -0.248433
    15  H    0.128899
    16  H    0.129642
    17  C   -0.442841
    18  H    0.139948
    19  H    0.141156
    20  H    0.146015
 Sum of Mulliken atomic charges =   0.00000

 Dipole moment (field-independent basis, Debye):
    X=             -0.0238    Y=             -0.0531    Z=              0.0044  Tot=              0.0583
 Quadrupole moment (field-independent basis, Debye-Ang):
   XX=            -41.9302   YY=            -41.6392   ZZ=            -41.1231
   XY=             -0.0272   XZ=             -0.0488   YZ=             -0.1478

 Normal termination of Gaussian 09 at Fri Sep 18 13:28:29 2015.
