 Gaussian 09, Revision A.01,
 Gaussian 09:  EM64L-G09RevA.01  8-May-2009

 -----------------------------------------
 #p B3LYP/6-31G(d) opt=tight int=ultrafine
 -----------------------------------------

 ---------------------------------------------
 using B3LYP/6-31G(d) to do opt and freq calc.
 ---------------------------------------------
 Symbolic Z-matrix:
 Charge =  0 Multiplicity = 1

 SCF Done:  E(RB3LYP) =  -237.083058913     A.U. after   11 cycles
 SCF Done:  E(RB3LYP) =  -237.083540736     A.U. after   10 cycles
 SCF Done:  E(RB3LYP) =  -237.083641641     A.U. after    9 cycles
 SCF Done:  E(RB3LYP) =  -237.083671147     A.U. after   13 cycles
 SCF Done:  E(RB3LYP) =  -237.083671693     A.U. after   12 cycles
 SCF Done:  E(RB3LYP) =  -237.083671752     A.U. after   12 cycles
 SCF Done:  E(RB3LYP) =  -237.083671776     A.U. after   12 cycles
 SCF Done:  E(RB3LYP) =  -237.083671777     A.U. after    5 cycles
 SCF Done:  E(RB3LYP) =  -237.083671777     A.U. after    5 cycles
 SCF Done:  E(RB3LYP) =  -237.083671777     A.U. after   12 cycles
 Optimization completed.
    -- Stationary point found.

                         Standard orientation:
 ---------------------------------------------------------------------
 Center     Atomic      Atomic             Coordinates (Angstroms)
 Number     Number       Type             X           Y           Z
 ---------------------------------------------------------------------
      1          6           0       -0.528904   -0.884965   -1.258684
      2          1           0        0.262434   -1.642426   -1.285316
      3          1           0       -0.448528   -0.282834   -2.172633
      4          1           0       -1.489700   -1.413298   -1.292085
      5          6           0       -0.436352   -0.000501    0.000000
      6          6           0        0.878587    0.823914   -0.000005
      7          1           0        0.865713    1.486524    0.877493
      8          1           0        0.865713    1.486512   -0.877512
      9          6           0        2.193477    0.033880    0.000000
     10          1           0        2.289033   -0.605048   -0.884944
     11          1           0        3.048489    0.719806   -0.000006
     12          1           0        2.289034   -0.605034    0.884953
     13          6           0       -1.618031    0.989662   -0.000005
     14          1           0       -1.593668    1.636395    0.886028
     15          1           0       -1.593671    1.636382   -0.886047
     16          1           0       -2.578316    0.459295    0.000001
     17          6           0       -0.528902   -0.884951    1.258694
     18          1           0       -1.489699   -1.413283    1.292103
     19          1           0        0.262435   -1.642413    1.285332
     20          1           0       -0.448523   -0.282809    2.172636
 ---------------------------------------------------------------------

 The electronic state is 1-A.
 Alpha  occ. eigenvalues --  -10.19076 -10.17436 -10.16949 -10.16703 -10.16702
 Alpha  occ. eigenvalues --  -10.16691  -0.81596  -0.73038  -0.67745  -0.67728
 Alpha  occ. eigenvalues --   -0.61747  -0.52183  -0.45194  -0.45090  -0.43035
 Alpha  occ. eigenvalues --   -0.41750  -0.39343  -0.37696  -0.37166  -0.35836
 Alpha  occ. eigenvalues --   -0.35236  -0.33908  -0.31107  -0.30915  -0.30319
 Alpha virt. eigenvalues --    0.07666   0.12426   0.13492   0.13722   0.14285
 Alpha virt. eigenvalues --    0.14615   0.16126   0.17675   0.17805   0.19652
 Alpha virt. eigenvalues --    0.20522   0.20875   0.22602   0.22710   0.24418

 Mulliken atomic charges:
              1
     1  C   -0.444652
     2  H    0.141135
     3  H    0.135863
     4  H    0.136720
     5  C    0.107047
     6  C   -0.240535
     7  H    0.124726
     8  H    0.124726
     9  C   -0.453889
    10  H    0.145132
    11  H    0.141550
    12  H    0.145132
    13  C   -0.440472
    14  H    0.136311
    15  H    0.136311
    16  H    0.135829
    17  C   -0.444652
    18  H    0.136720
    19  H    0.141135
    20  H    0.135863
 Sum of Mulliken atomic charges =   0.00000

 Dipole moment (field-independent basis, Debye):
    X=              0.0374    Y=              0.0165    Z=              0.0000  Tot=              0.0409
 Quadrupole moment (field-independent basis, Debye-Ang):
   XX=            -41.7875   YY=            -41.6710   ZZ=            -41.5862
   XY=              0.2725   XZ=              0.0000   YZ=              0.0000

 Normal termination of Gaussian 09 at Fri Sep 18 13:37:31 2015.
