 Gaussian 09, Revision A.01,
 Gaussian 09:  EM64L-G09RevA.01  8-May-2009

 ----------
 #p PM6 opt
 ----------

 ----------------------------------
 using PM6 to do opt and freq calc.
 ----------------------------------
 Symbolic Z-matrix:
 Charge =  0 Multiplicity = 1

 SCF Done:  E(RPM6) = -0.504963984839E-01 A.U. after   13 cycles
 SCF Done:  E(RPM6) = -0.574087038777E-01 A.U. after   15 cycles
 SCF Done:  E(RPM6) = -0.597424207125E-01 A.U. after   14 cycles
 SCF Done:  E(RPM6) = -0.602242214609E-01 A.U. after   16 cycles
 SCF Done:  E(RPM6) = -0.604196685407E-01 A.U. after   12 cycles
 SCF Done:  E(RPM6) = -0.604302019291E-01 A.U. after   11 cycles
 SCF Done:  E(RPM6) = -0.604312088086E-01 A.U. after   10 cycles
 SCF Done:  E(RPM6) = -0.604313396601E-01 A.U. after    8 cycles
 SCF Done:  E(RPM6) = -0.604313821159E-01 A.U. after    9 cycles
 SCF Done:  E(RPM6) = -0.604314042501E-01 A.U. after    8 cycles
 Optimization completed.
    -- Stationary point found.

                         Standard orientation:
 ---------------------------------------------------------------------
 Center     Atomic      Atomic             Coordinates (Angstroms)
 Number     Number       Type             X           Y           Z
 ---------------------------------------------------------------------
      1          6           0        1.642393    0.957677   -0.002960
      2          1           0        1.644336    1.605902    0.878295
      3          1           0        1.643931    1.600967   -0.887825
      4          1           0        2.586667    0.404348   -0.001634
      5          6           0        0.431759   -0.001550   -0.000003
      6          6           0       -0.862933    0.856177   -0.001757
      7          1           0       -0.850942    1.523054   -0.885653
      8          1           0       -0.850906    1.526626    0.879431
      9          6           0       -2.157469    0.048040   -0.000117
     10          1           0       -2.231362   -0.595858    0.883640
     11          1           0       -3.031433    0.708936    0.000920
     12          1           0       -2.233517   -0.595938   -0.883621
     13          6           0        0.494272   -0.889881   -1.256335
     14          1           0       -0.325789   -1.614801   -1.273968
     15          1           0        0.425725   -0.294023   -2.171404
     16          1           0        1.430531   -1.454603   -1.299311
     17          6           0        0.495149   -0.883201    1.260982
     18          1           0        1.430990   -1.448468    1.305790
     19          1           0        0.428267   -0.282415    2.172951
     20          1           0       -0.325525   -1.607305    1.283528
 ---------------------------------------------------------------------

 The electronic state is 1-A.
 Alpha  occ. eigenvalues --   -1.07268  -0.95306  -0.88392  -0.88255  -0.79240
 Alpha  occ. eigenvalues --   -0.66626  -0.57056  -0.56580  -0.54150  -0.52534
 Alpha  occ. eigenvalues --   -0.49593  -0.47749  -0.47302  -0.46054  -0.45901
 Alpha  occ. eigenvalues --   -0.43564  -0.41346  -0.40924  -0.40165
 Alpha virt. eigenvalues --    0.15472   0.16173   0.16352   0.18153   0.18412
 Alpha virt. eigenvalues --    0.21405   0.22199   0.22401   0.22428   0.22681
 Alpha virt. eigenvalues --    0.22739   0.22827   0.22881   0.23364   0.24760

 Mulliken atomic charges:
              1
     1  C   -0.538624
     2  H    0.152136
     3  H    0.152139
     4  H    0.154238
     5  C    0.271665
     6  C   -0.295120
     7  H    0.132267
     8  H    0.132265
     9  C   -0.446123
    10  H    0.144653
    11  H    0.139208
    12  H    0.144630
    13  C   -0.528058
    14  H    0.153679
    15  H    0.151585
    16  H    0.151136
    17  C   -0.528074
    18  H    0.151144
    19  H    0.151586
    20  H    0.153669
 Sum of Mulliken atomic charges =   0.00000

 Dipole moment (field-independent basis, Debye):
    X=              0.0114    Y=             -0.0378    Z=              0.0001  Tot=              0.0395
 N-N= 1.715283965081D+02 E-N=-2.637496606030D+02  KE=-5.646790439048D+01
 Leave Link  601 at Sun Sep 13 11:20:53 2015, MaxMem=  671088640 cpu:       0.1
 (Enter /share/apps/g09/l9999.exe)
 1\1\GINC-COMPUTE-0-14\FOpt\RPM6\ZDO\C6H14\HETANJIN\13-Sep-2015\0\\#p P
 M6 opt\\using PM6 to do opt and freq calc.\\0,1\C,-3.3198368073,-0.082
 9403858,-0.0124672123\H,-2.950720204,-1.1126518889,-0.0284882852\H,-2.
 9454082472,0.4175734549,-0.9102982244\H,-4.4102287565,-0.1270984613,-0
 .0956718082\C,-2.8861990486,0.6561167381,1.2726446849\C,-1.3339191083,
 0.6758550039,1.3169397143\H,-0.9543942837,1.1628299011,0.3977238267\H,
 -0.9601873256,-0.365831515,1.2801596701\C,-0.7444883423,1.3779416641,2

 Normal termination of Gaussian 09 at Sun Sep 13 11:20:53 2015.
