 Gaussian 09, Revision A.01,
 Gaussian 09:  EM64L-G09RevA.01  8-May-2009

 -----------------------------------------
 #p B3LYP/6-31G(d) opt=tight int=ultrafine
 -----------------------------------------

 ---------------------------------------------
 using B3LYP/6-31G(d) to do opt and freq calc.
 ---------------------------------------------
 Symbolic Z-matrix:
 Charge =  0 Multiplicity = 1

 SCF Done:  E(RB3LYP) =  -237.081778185     A.U. after   11 cycles
 SCF Done:  E(RB3LYP) =  -237.082996586     A.U. after   10 cycles
 SCF Done:  E(RB3LYP) =  -237.083182324     A.U. after   10 cycles
 SCF Done:  E(RB3LYP) =  -237.083216705     A.U. after    9 cycles
 SCF Done:  E(RB3LYP) =  -237.083224449     A.U. after    8 cycles
 SCF Done:  E(RB3LYP) =  -237.083225421     A.U. after    7 cycles
 SCF Done:  E(RB3LYP) =  -237.083225453     A.U. after    6 cycles
 SCF Done:  E(RB3LYP) =  -237.083225456     A.U. after    5 cycles
 SCF Done:  E(RB3LYP) =  -237.083225457     A.U. after    3 cycles
 Optimization completed.
    -- Stationary point found.

                         Standard orientation:
 ---------------------------------------------------------------------
 Center     Atomic      Atomic             Coordinates (Angstroms)
 Number     Number       Type             X           Y           Z
 ---------------------------------------------------------------------
      1          6           0       -2.585432   -0.173073   -0.291851
      2          1           0       -2.569463   -0.210638   -1.388478
      3          1           0       -2.798667    0.860562    0.001553
      4          1           0       -3.426358   -0.788593    0.047903
      5          6           0       -1.264296   -0.681118    0.297504
      6          1           0       -1.305087   -0.618240    1.395359
      7          1           0       -1.161916   -1.749281    0.059911
      8          6           0        0.000000    0.051171   -0.198826
      9          1           0        0.000000    0.001396   -1.300324
     10          6           0        1.264302   -0.681109    0.297508
     11          1           0        1.161925   -1.749272    0.059918
     12          1           0        1.305094   -0.618227    1.395362
     13          6           0        2.585438   -0.173067   -0.291851
     14          1           0        2.798686    0.860561    0.001567
     15          1           0        3.426361   -0.788600    0.047886
     16          1           0        2.569461   -0.210616   -1.388478
     17          6           0       -0.000012    1.533367    0.207284
     18          1           0       -0.880957    2.058929   -0.175879
     19          1           0        0.000009    1.636043    1.301009
     20          1           0        0.880901    2.058954   -0.175915
 ---------------------------------------------------------------------

 The electronic state is 1-A.
 Alpha  occ. eigenvalues --  -10.18101 -10.17449 -10.17448 -10.16972 -10.16972
 Alpha  occ. eigenvalues --  -10.16735  -0.80683  -0.74380  -0.70349  -0.64780
 Alpha  occ. eigenvalues --   -0.59318  -0.54914  -0.46164  -0.44911  -0.42620
 Alpha  occ. eigenvalues --   -0.41145  -0.39181  -0.38430  -0.36955  -0.35838
 Alpha  occ. eigenvalues --   -0.34587  -0.33097  -0.31362  -0.30832  -0.30319
 Alpha virt. eigenvalues --    0.08559   0.11937   0.12221   0.12831   0.15264
 Alpha virt. eigenvalues --    0.15423   0.16435   0.17413   0.17511   0.18225
 Alpha virt. eigenvalues --    0.18607   0.20279   0.22663   0.23234   0.24607

 Mulliken atomic charges:
              1
     1  C   -0.448423
     2  H    0.140311
     3  H    0.145528
     4  H    0.141337
     5  C   -0.246017
     6  H    0.126073
     7  H    0.127239
     8  C   -0.057091
     9  H    0.113571
    10  C   -0.246017
    11  H    0.127239
    12  H    0.126073
    13  C   -0.448423
    14  H    0.145528
    15  H    0.141337
    16  H    0.140311
    17  C   -0.452985
    18  H    0.144049
    19  H    0.136311
    20  H    0.144049
 Sum of Mulliken atomic charges =   0.00000

 Dipole moment (field-independent basis, Debye):
    X=              0.0000    Y=             -0.0545    Z=             -0.0148  Tot=              0.0564
 Quadrupole moment (field-independent basis, Debye-Ang):
   XX=            -41.9987   YY=            -41.5500   ZZ=            -41.2578
   XY=              0.0000   XZ=              0.0000   YZ=              0.1388

 Normal termination of Gaussian 09 at Fri Sep 18 13:35:42 2015.
