 Gaussian 09, Revision A.01,
 Gaussian 09:  EM64L-G09RevA.01  8-May-2009

 ----------
 #p PM6 opt
 ----------

 ----------------------------------
 using PM6 to do opt and freq calc.
 ----------------------------------
 Symbolic Z-matrix:
 Charge =  0 Multiplicity = 1

 SCF Done:  E(RPM6) = -0.484148136715E-01 A.U. after   13 cycles
 SCF Done:  E(RPM6) = -0.557771533712E-01 A.U. after   12 cycles
 SCF Done:  E(RPM6) = -0.578404100014E-01 A.U. after   11 cycles
 SCF Done:  E(RPM6) = -0.581613360711E-01 A.U. after   11 cycles
 SCF Done:  E(RPM6) = -0.583258625329E-01 A.U. after   11 cycles
 SCF Done:  E(RPM6) = -0.583753560164E-01 A.U. after   10 cycles
 SCF Done:  E(RPM6) = -0.583891495238E-01 A.U. after   10 cycles
 SCF Done:  E(RPM6) = -0.583910868393E-01 A.U. after   10 cycles
 SCF Done:  E(RPM6) = -0.583914634924E-01 A.U. after    8 cycles
 SCF Done:  E(RPM6) = -0.583915033213E-01 A.U. after    8 cycles
 SCF Done:  E(RPM6) = -0.583915110907E-01 A.U. after    7 cycles
 Optimization completed.
    -- Stationary point found.

                         Standard orientation:
 ---------------------------------------------------------------------
 Center     Atomic      Atomic             Coordinates (Angstroms)
 Number     Number       Type             X           Y           Z
 ---------------------------------------------------------------------
      1          6           0        2.150165   -1.028734    0.015616
      2          1           0        1.931925   -2.011970   -0.413464
      3          1           0        2.252882   -1.156591    1.098412
      4          1           0        3.125482   -0.712287   -0.368827
      5          6           0        1.057458   -0.007733   -0.332725
      6          1           0        0.983523    0.057235   -1.447023
      7          6           0       -0.303687   -0.478654    0.222376
      8          1           0       -0.310549   -0.392033    1.324917
      9          1           0       -0.436774   -1.556676    0.009228
     10          6           0       -1.480374    0.307219   -0.371506
     11          1           0       -1.468488    0.225329   -1.475943
     12          1           0       -1.363756    1.385873   -0.146822
     13          6           0       -2.820978   -0.188201    0.167339
     14          1           0       -2.879114   -0.087765    1.257032
     15          1           0       -3.654118    0.380556   -0.259899
     16          1           0       -2.986927   -1.244422   -0.072757
     17          6           0        1.433090    1.378300    0.207466
     18          1           0        0.670692    2.123744   -0.042990
     19          1           0        1.537470    1.371540    1.297624
     20          1           0        2.383710    1.724286   -0.210882
 ---------------------------------------------------------------------

 The electronic state is 1-A.
 Alpha  occ. eigenvalues --   -1.06232  -0.99036  -0.88416  -0.86326  -0.75068
 Alpha  occ. eigenvalues --   -0.71008  -0.58811  -0.55724  -0.54903  -0.52251
 Alpha  occ. eigenvalues --   -0.49870  -0.48209  -0.48023  -0.46264  -0.44677
 Alpha  occ. eigenvalues --   -0.42957  -0.41162  -0.40928  -0.40472
 Alpha virt. eigenvalues --    0.15319   0.15687   0.16970   0.17544   0.18552
 Alpha virt. eigenvalues --    0.20782   0.21770   0.22077   0.22254   0.22289
 Alpha virt. eigenvalues --    0.22431   0.22511   0.23485   0.23621   0.24505

 Mulliken atomic charges:
              1
     1  C   -0.504029
     2  H    0.147804
     3  H    0.151558
     4  H    0.149538
     5  C    0.027473
     6  H    0.108583
     7  C   -0.308959
     8  H    0.137928
     9  H    0.135336
    10  C   -0.213068
    11  H    0.123926
    12  H    0.125749
    13  C   -0.465824
    14  H    0.146477
    15  H    0.143431
    16  H    0.146110
    17  C   -0.498729
    18  H    0.148644
    19  H    0.151040
    20  H    0.147012
 Sum of Mulliken atomic charges =   0.00000

 Dipole moment (field-independent basis, Debye):
    X=              0.0158    Y=             -0.0225    Z=              0.1014  Tot=              0.1050
 N-N= 1.656352369179D+02 E-N=-2.521521489283D+02  KE=-5.622837687105D+01
 Leave Link  601 at Sun Sep 13 11:21:02 2015, MaxMem=  671088640 cpu:       0.0
 (Enter /share/apps/g09/l9999.exe)
 1\1\GINC-COMPUTE-0-14\FOpt\RPM6\ZDO\C6H14\HETANJIN\13-Sep-2015\0\\#p P
 M6 opt\\using PM6 to do opt and freq calc.\\0,1\C,-3.875140626,-0.2210
 517703,0.0449479878\H,-3.5129359222,-1.2518205081,0.1143297019\H,-3.53
 61067397,0.1840334615,-0.9143791857\H,-4.9691030538,-0.2592322022,0.01
 38803807\C,-3.3818759808,0.6292380811,1.2245632992\H,-3.7365362159,0.1
 508184326,2.1714937566\C,-1.8388451993,0.6662976222,1.2419627613\H,-1.
 4678426666,1.2801296611,0.400111304\H,-1.4426565083,-0.351727559,1.063

 Normal termination of Gaussian 09 at Sun Sep 13 11:21:03 2015.
