 Gaussian 09, Revision A.01,
 Gaussian 09:  EM64L-G09RevA.01  8-May-2009

 ----------
 #p PM6 opt
 ----------

 ----------------------------------
 using PM6 to do opt and freq calc.
 ----------------------------------
 Symbolic Z-matrix:
 Charge =  0 Multiplicity = 1

 SCF Done:  E(RPM6) = -0.528884161565E-01 A.U. after   12 cycles
 SCF Done:  E(RPM6) = -0.550691605313E-01 A.U. after   11 cycles
 SCF Done:  E(RPM6) = -0.552634468120E-01 A.U. after   10 cycles
 SCF Done:  E(RPM6) = -0.553336078833E-01 A.U. after   10 cycles
 SCF Done:  E(RPM6) = -0.553773155072E-01 A.U. after   11 cycles
 SCF Done:  E(RPM6) = -0.553938669652E-01 A.U. after   10 cycles
 SCF Done:  E(RPM6) = -0.554005150722E-01 A.U. after    9 cycles
 SCF Done:  E(RPM6) = -0.554028912075E-01 A.U. after   15 cycles
 SCF Done:  E(RPM6) = -0.554036221812E-01 A.U. after    8 cycles
 SCF Done:  E(RPM6) = -0.554037810509E-01 A.U. after    8 cycles
 SCF Done:  E(RPM6) = -0.554038024674E-01 A.U. after    7 cycles
 Optimization completed.
    -- Stationary point found.

                         Standard orientation:
 ---------------------------------------------------------------------
 Center     Atomic      Atomic             Coordinates (Angstroms)
 Number     Number       Type             X           Y           Z
 ---------------------------------------------------------------------
      1          6           0       -2.445841    0.847685    0.282129
      2          1           0       -2.300899    1.657891   -0.441278
      3          1           0       -1.914978    1.131601    1.198115
      4          1           0       -3.514074    0.803540    0.519866
      5          6           0       -1.944251   -0.487478   -0.264087
      6          1           0       -2.143413   -1.290713    0.472021
      7          1           0       -2.527705   -0.757449   -1.166777
      8          6           0       -0.450781   -0.464406   -0.620816
      9          1           0       -0.227093    0.422487   -1.244675
     10          1           0       -0.212532   -1.342176   -1.252243
     11          6           0        0.450780   -0.464403    0.620817
     12          1           0        0.212531   -1.342168    1.252250
     13          1           0        0.227093    0.422494    1.244671
     14          6           0        1.944250   -0.487478    0.264088
     15          1           0        2.143411   -1.290715   -0.472018
     16          1           0        2.527704   -0.757448    1.166778
     17          6           0        2.445842    0.847684   -0.282131
     18          1           0        2.300913    1.657889    0.441280
     19          1           0        3.514073    0.803534   -0.519879
     20          1           0        1.914971    1.131604   -1.198110
 ---------------------------------------------------------------------

 The electronic state is 1-A.
 Alpha  occ. eigenvalues --   -1.05711  -0.99695  -0.90309  -0.83365  -0.75316
 Alpha  occ. eigenvalues --   -0.71443  -0.58029  -0.56390  -0.55432  -0.53309
 Alpha  occ. eigenvalues --   -0.49840  -0.48608  -0.47734  -0.45011  -0.44134
 Alpha  occ. eigenvalues --   -0.42940  -0.41487  -0.40680  -0.40210
 Alpha virt. eigenvalues --    0.15387   0.16566   0.16644   0.17377   0.18045
 Alpha virt. eigenvalues --    0.21090   0.21239   0.21435   0.22167   0.22336
 Alpha virt. eigenvalues --    0.22949   0.23064   0.23280   0.24170   0.24499

 Mulliken atomic charges:
              1
     1  C   -0.458864
     2  H    0.145506
     3  H    0.146848
     4  H    0.141151
     5  C   -0.223557
     6  H    0.125962
     7  H    0.122506
     8  C   -0.259476
     9  H    0.134052
    10  H    0.125873
    11  C   -0.259476
    12  H    0.125873
    13  H    0.134052
    14  C   -0.223557
    15  H    0.125962
    16  H    0.122506
    17  C   -0.458864
    18  H    0.145506
    19  H    0.141151
    20  H    0.146848
 Sum of Mulliken atomic charges =   0.00000

 Dipole moment (field-independent basis, Debye):
    X=              0.0000    Y=              0.0812    Z=              0.0000  Tot=              0.0812
 N-N= 1.644431298704D+02 E-N=-2.498920070607D+02  KE=-5.611217919625D+01
 Leave Link  601 at Mon Sep 14 19:14:32 2015, MaxMem=  402653184 cpu:       0.0
 (Enter /share/apps/g09/l9999.exe)
 1\1\GINC-COMPUTE-0-10\FOpt\RPM6\ZDO\C6H14\HETANJIN\14-Sep-2015\0\\#p P
 M6 opt\\using PM6 to do opt and freq calc.\\0,1\C,0.9664221092,2.74561
 81638,-0.7433108175\H,0.2356555204,3.4071005632,-1.2220401115\H,1.0372
 799857,1.841105538,-1.3583623803\H,1.9397410265,3.246545694,-0.7795230
 077\C,0.5664873799,2.415336156,0.6932028028\H,1.3448893009,1.781570149
 3,1.1613261702\H,0.5407416736,3.3481757514,1.2909472261\C,-0.799782389
 ,1.720781364,0.7888085557\H,-1.5497120679,2.2841412732,0.2005510138\H,

 Normal termination of Gaussian 09 at Mon Sep 14 19:14:39 2015.
