 Gaussian 09, Revision A.01,
 Gaussian 09:  EM64L-G09RevA.01  8-May-2009

 ----------
 #p PM6 opt
 ----------

 ----------------------------------
 using PM6 to do opt and freq calc.
 ----------------------------------
 Symbolic Z-matrix:
 Charge =  0 Multiplicity = 1

 SCF Done:  E(RPM6) = -0.554507214893E-01 A.U. after   13 cycles
 SCF Done:  E(RPM6) = -0.581761103006E-01 A.U. after   11 cycles
 SCF Done:  E(RPM6) = -0.583287837199E-01 A.U. after   11 cycles
 SCF Done:  E(RPM6) = -0.583746285727E-01 A.U. after   10 cycles
 SCF Done:  E(RPM6) = -0.583859711529E-01 A.U. after   10 cycles
 SCF Done:  E(RPM6) = -0.583899910538E-01 A.U. after   10 cycles
 SCF Done:  E(RPM6) = -0.583912654519E-01 A.U. after    9 cycles
 SCF Done:  E(RPM6) = -0.583914888878E-01 A.U. after    8 cycles
 Optimization completed.
    -- Stationary point found.

                         Standard orientation:
 ---------------------------------------------------------------------
 Center     Atomic      Atomic             Coordinates (Angstroms)
 Number     Number       Type             X           Y           Z
 ---------------------------------------------------------------------
      1          6           0        2.150080   -1.028872    0.015511
      2          1           0        1.931219   -2.012349   -0.412700
      3          1           0        2.253555   -1.156004    1.098322
      4          1           0        3.125179   -0.712949   -0.369909
      5          6           0        1.057434   -0.007792   -0.332715
      6          1           0        0.983453    0.057187   -1.447019
      7          6           0       -0.303712   -0.478483    0.222569
      8          1           0       -0.310440   -0.391623    1.325114
      9          1           0       -0.436964   -1.556552    0.009681
     10          6           0       -1.480386    0.307405   -0.371288
     11          1           0       -1.468287    0.225824   -1.475771
     12          1           0       -1.363935    1.386030   -0.146276
     13          6           0       -2.821069   -0.188292    0.167125
     14          1           0       -2.878839   -0.089694    1.257011
     15          1           0       -3.654069    0.381601   -0.258876
     16          1           0       -2.987597   -1.244024   -0.074737
     17          6           0        1.433315    1.378242    0.207405
     18          1           0        0.670841    2.123691   -0.042756
     19          1           0        1.538094    1.371442    1.297528
     20          1           0        2.383816    1.724168   -0.211259
 ---------------------------------------------------------------------

 The electronic state is 1-A.
 Alpha  occ. eigenvalues --   -1.06231  -0.99036  -0.88416  -0.86325  -0.75067
 Alpha  occ. eigenvalues --   -0.71008  -0.58810  -0.55724  -0.54902  -0.52252
 Alpha  occ. eigenvalues --   -0.49870  -0.48209  -0.48022  -0.46265  -0.44676
 Alpha  occ. eigenvalues --   -0.42956  -0.41162  -0.40928  -0.40471
 Alpha virt. eigenvalues --    0.15319   0.15687   0.16969   0.17545   0.18552
 Alpha virt. eigenvalues --    0.20782   0.21770   0.22077   0.22254   0.22289
 Alpha virt. eigenvalues --    0.22431   0.22511   0.23484   0.23621   0.24504

 Mulliken atomic charges:
              1
     1  C   -0.504030
     2  H    0.147809
     3  H    0.151559
     4  H    0.149536
     5  C    0.027471
     6  H    0.108584
     7  C   -0.308959
     8  H    0.137925
     9  H    0.135343
    10  C   -0.213067
    11  H    0.123930
    12  H    0.125745
    13  C   -0.465825
    14  H    0.146483
    15  H    0.143432
    16  H    0.146104
    17  C   -0.498731
    18  H    0.148645
    19  H    0.151036
    20  H    0.147011
 Sum of Mulliken atomic charges =   0.00000

 Dipole moment (field-independent basis, Debye):
    X=              0.0158    Y=             -0.0225    Z=              0.1014  Tot=              0.1051
 N-N= 1.656343311955D+02 E-N=-2.521504736108D+02  KE=-5.622831988527D+01
 Leave Link  601 at Mon Sep 14 19:13:30 2015, MaxMem=  402653184 cpu:       0.0
 (Enter /share/apps/g09/l9999.exe)
 1\1\GINC-COMPUTE-0-4\FOpt\RPM6\ZDO\C6H14\HETANJIN\14-Sep-2015\0\\#p PM
 6 opt\\using PM6 to do opt and freq calc.\\0,1\C,2.1538585801,-1.00934
 19283,0.0328407272\H,1.9429593585,-1.9890718053,-0.4077772782\H,2.2505
 61697,-1.1480192583,1.1148604237\H,3.1299482355,-0.684240883,-0.342300
 6322\C,1.0584234031,0.0100493164,-0.3115494783\H,0.9917459268,0.087077
 3253,-1.4255470754\C,-0.3040730225,-0.4736443632,0.2290549848\H,-0.318
 7953023,-0.3991198665,1.3324241448\H,-0.4303570796,-1.5499287721,0.003

 Normal termination of Gaussian 09 at Mon Sep 14 19:13:32 2015.
