 Gaussian 09, Revision D.01,
 Gaussian 09:  ES64L-G09RevD.01 24-Apr-2013

 ----------------------------------------------
 #p B3LYP/6-31G(d) opt=tight int=ultrafine freq
 ----------------------------------------------

 ---------------------------------------------
 using B3LYP/6-31G(d) to do opt and freq calc.
 ---------------------------------------------
 Symbolic Z-matrix:
 Charge =  0 Multiplicity = 2

 SCF Done:  E(UB3LYP) =  -236.413128637     A.U. after   14 cycles
 SCF Done:  E(UB3LYP) =  -236.421230121     A.U. after   12 cycles
 SCF Done:  E(UB3LYP) =  -236.423631694     A.U. after   13 cycles
 SCF Done:  E(UB3LYP) =  -236.423781560     A.U. after   11 cycles
 SCF Done:  E(UB3LYP) =  -236.423796958     A.U. after    9 cycles
 SCF Done:  E(UB3LYP) =  -236.423802145     A.U. after    9 cycles
 SCF Done:  E(UB3LYP) =  -236.423809242     A.U. after    9 cycles
 SCF Done:  E(UB3LYP) =  -236.423816831     A.U. after   10 cycles
 SCF Done:  E(UB3LYP) =  -236.423808709     A.U. after   10 cycles
 SCF Done:  E(UB3LYP) =  -236.423805529     A.U. after    9 cycles
 SCF Done:  E(UB3LYP) =  -236.424151947     A.U. after    9 cycles
 SCF Done:  E(UB3LYP) =  -236.424151975     A.U. after    7 cycles
 SCF Done:  E(UB3LYP) =  -236.424152064     A.U. after    8 cycles
 SCF Done:  E(UB3LYP) =  -236.424152180     A.U. after    8 cycles
 SCF Done:  E(UB3LYP) =  -236.424152220     A.U. after    7 cycles
 SCF Done:  E(UB3LYP) =  -236.424152265     A.U. after    7 cycles
 SCF Done:  E(UB3LYP) =  -236.424152283     A.U. after    7 cycles
 SCF Done:  E(UB3LYP) =  -236.424152290     A.U. after    6 cycles
 SCF Done:  E(UB3LYP) =  -236.424152293     A.U. after    6 cycles
 Optimization completed.
    -- Stationary point found.
 Normal termination of Gaussian 09 at Sat Nov  7 02:30:13 2015.

 --------------------------------------------------------------------
 #P Geom=AllCheck Guess=TCheck SCRF=Check GenChk UB3LYP/6-31G(d) Freq
 --------------------------------------------------------------------

 Structure from the checkpoint file:  "/state/partition1/Gau-14123.chk"
 ---------------------------------------------
 using B3LYP/6-31G(d) to do opt and freq calc.
 ---------------------------------------------
 Charge =  0 Multiplicity = 2

                         Standard orientation:
 ---------------------------------------------------------------------
 Center     Atomic      Atomic             Coordinates (Angstroms)
 Number     Number       Type             X           Y           Z
 ---------------------------------------------------------------------
      1          6           0        1.908643   -1.242186   -0.124562
      2          1           0        1.288146   -2.124925   -0.322846
      3          1           0        2.516071   -1.479729    0.769477
      4          1           0        2.619954   -1.135867   -0.955281
      5          6           0        1.080766   -0.008834    0.062972
      6          6           0       -0.325974   -0.108574    0.583019
      7          1           0       -0.504793    0.663288    1.349261
      8          1           0       -0.478704   -1.076785    1.081995
      9          6           0       -1.409541    0.048496   -0.512090
     10          1           0       -1.261631   -0.728106   -1.274342
     11          1           0       -1.265697    1.009843   -1.023482
     12          6           0       -2.834975   -0.033132    0.043039
     13          1           0       -3.017017    0.753680    0.785700
     14          1           0       -3.581131    0.079955   -0.751924
     15          1           0       -3.014838   -0.997636    0.534084
     16          6           0        1.736654    1.333117   -0.048412
     17          1           0        1.002686    2.138203   -0.177676
     18          1           0        2.325034    1.586045    0.853833
     19          1           0        2.438479    1.378712   -0.892592
 ---------------------------------------------------------------------

 SCF Done:  E(UB3LYP) =  -236.424152293     A.U. after    1 cycles

 The electronic state is 2-A.
 Alpha  occ. eigenvalues --  -10.18202 -10.17767 -10.17574 -10.17307 -10.17290
 Alpha  occ. eigenvalues --  -10.17030  -0.80485  -0.75570  -0.68494  -0.67463
 Alpha  occ. eigenvalues --   -0.58883  -0.52804  -0.46112  -0.44015  -0.42982
 Alpha  occ. eigenvalues --   -0.41233  -0.40045  -0.38096  -0.37452  -0.36202
 Alpha  occ. eigenvalues --   -0.34463  -0.33385  -0.32049  -0.31850  -0.16036
 Alpha virt. eigenvalues --    0.08647   0.11762   0.13039   0.13890   0.14733
 Alpha virt. eigenvalues --    0.15417   0.16949   0.18115   0.18531   0.18975
 Alpha virt. eigenvalues --    0.19331   0.19409   0.21097   0.22473   0.24951

  Beta  occ. eigenvalues --  -10.17667 -10.17634 -10.17402 -10.17384 -10.17018
  Beta  occ. eigenvalues --  -10.16834  -0.79276  -0.74886  -0.68275  -0.67306
  Beta  occ. eigenvalues --   -0.58545  -0.51079  -0.45942  -0.43676  -0.41307
  Beta  occ. eigenvalues --   -0.40927  -0.39811  -0.37497  -0.37156  -0.36111
  Beta  occ. eigenvalues --   -0.34122  -0.33069  -0.31746  -0.31436
  Beta virt. eigenvalues --   -0.02038   0.08743   0.11875   0.13094   0.14027
  Beta virt. eigenvalues --    0.14966   0.15752   0.17301   0.18265   0.18745
  Beta virt. eigenvalues --    0.19268   0.19467   0.19667   0.21176   0.24311

 Mulliken charges and spin densities:
               1          2
     1  C   -0.495513  -0.082198
     2  H    0.147378   0.009525
     3  H    0.145630   0.063722
     4  H    0.145260   0.019545
     5  C    0.154216   0.971758
     6  C   -0.305396  -0.076233
     7  H    0.129791   0.022232
     8  H    0.129558   0.009509
     9  C   -0.242956   0.044738
    10  H    0.133187  -0.000652
    11  H    0.133111  -0.001516
    12  C   -0.441917   0.009735
    13  H    0.140832  -0.000332
    14  H    0.142121   0.000604
    15  H    0.140916  -0.000266
    16  C   -0.495155  -0.080877
    17  H    0.147866   0.008975
    18  H    0.145400   0.062085
    19  H    0.145672   0.019645
 Sum of Mulliken charges =   0.00000   1.00000

 Dipole moment (field-independent basis, Debye):
    X=              0.0412    Y=              0.0040    Z=              0.0460  Tot=              0.0619
 Quadrupole moment (field-independent basis, Debye-Ang):
   XX=            -40.7654   YY=            -40.1185   ZZ=            -40.9673
   XY=             -0.0083   XZ=              0.0377   YZ=              0.0554

  Exact polarizability:  76.162  -0.069  63.408  -0.645   0.152  55.053
 Approx polarizability:  88.204  -0.059  85.702  -0.965   0.325  77.678

                      1                      2                      3
                      A                      A                      A
 Frequencies --      9.6902                70.6727                92.5112
 Red. masses --      2.1657                 1.1054                 1.6049
 Frc consts  --      0.0001                 0.0033                 0.0081
 IR Inten    --      0.0262                 0.1958                 0.0032

                      4                      5                      6
                      A                      A                      A
 Frequencies --    108.0850               148.5234               242.9864
 Red. masses --      1.1640                 2.3830                 1.0992
 Frc consts  --      0.0080                 0.0310                 0.0382
 IR Inten    --      0.0043                 0.6634                 0.0004

                      7                      8                      9
                      A                      A                      A
 Frequencies --    292.6955               333.5887               382.6039
 Red. masses --      2.5670                 2.6176                 2.0590
 Frc consts  --      0.1296                 0.1716                 0.1776
 IR Inten    --      0.5624                 1.7679                 0.1853

                     10                     11                     12
                      A                      A                      A
 Frequencies --    445.5666               749.0984               781.0591
 Red. masses --      2.6982                 1.0971                 3.2988
 Frc consts  --      0.3156                 0.3627                 1.1857
 IR Inten    --      0.4088                 2.6076                 1.1022

                     13                     14                     15
                      A                      A                      A
 Frequencies --    880.1286               884.2713               958.8559
 Red. masses --      1.3230                 1.9740                 1.2266
 Frc consts  --      0.6038                 0.9094                 0.6645
 IR Inten    --      0.3099                 1.1112                 0.8749

                     16                     17                     18
                      A                      A                      A
 Frequencies --    992.7464              1011.7096              1040.8159
 Red. masses --      1.3317                 1.8090                 2.1036
 Frc consts  --      0.7733                 1.0909                 1.3427
 IR Inten    --      0.7813                 3.7397                 0.4967

                     19                     20                     21
                      A                      A                      A
 Frequencies --   1046.9382              1079.9731              1103.8230
 Red. masses --      1.6660                 1.4814                 1.8702
 Frc consts  --      1.0759                 1.0180                 1.3426
 IR Inten    --      0.4310                 0.5109                 4.1123

                     22                     23                     24
                      A                      A                      A
 Frequencies --   1250.9774              1288.8998              1319.6803
 Red. masses --      1.7879                 1.6470                 1.4447
 Frc consts  --      1.6485                 1.6121                 1.4824
 IR Inten    --      0.5667                11.9349                 2.0520

                     25                     26                     27
                      A                      A                      A
 Frequencies --   1334.6592              1362.4913              1388.0919
 Red. masses --      1.9405                 1.3870                 1.4368
 Frc consts  --      2.0366                 1.5170                 1.6311
 IR Inten    --      0.3919                 2.1398                 2.7025

                     28                     29                     30
                      A                      A                      A
 Frequencies --   1428.6642              1437.8398              1445.8438
 Red. masses --      1.2856                 1.2392                 1.2104
 Frc consts  --      1.5460                 1.5095                 1.4908
 IR Inten    --      1.8280                 0.9089                 0.2927

                     31                     32                     33
                      A                      A                      A
 Frequencies --   1499.9594              1504.6625              1508.9956
 Red. masses --      1.0656                 1.0727                 1.0458
 Frc consts  --      1.4125                 1.4309                 1.4031
 IR Inten    --      0.9526                 6.5106                 2.7005

                     34                     35                     36
                      A                      A                      A
 Frequencies --   1515.1292              1521.6047              1527.4388
 Red. masses --      1.0705                 1.0664                 1.0682
 Frc consts  --      1.4480                 1.4547                 1.4684
 IR Inten    --      2.4612                 0.9654                 0.6519

                     37                     38                     39
                      A                      A                      A
 Frequencies --   1528.4881              1538.1626              2945.3418
 Red. masses --      1.0418                 1.0799                 1.0606
 Frc consts  --      1.4340                 1.5054                 5.4211
 IR Inten    --      6.3143                 3.1686                35.1862

                     40                     41                     42
                      A                      A                      A
 Frequencies --   2951.8113              2991.5061              3034.2399
 Red. masses --      1.0623                 1.0626                 1.0733
 Frc consts  --      5.4537                 5.6025                 5.8222
 IR Inten    --     69.9245                39.3658                10.8264

                     43                     44                     45
                      A                      A                      A
 Frequencies --   3037.5401              3039.9934              3041.4135
 Red. masses --      1.0771                 1.0414                 1.0718
 Frc consts  --      5.8553                 5.6706                 5.8415
 IR Inten    --     18.1990                51.3818                16.2157

                     46                     47                     48
                      A                      A                      A
 Frequencies --   3044.2907              3069.3900              3091.6804
 Red. masses --      1.0694                 1.1044                 1.1003
 Frc consts  --      5.8391                 6.1304                 6.1964
 IR Inten    --     42.6259                20.9048                20.9006

                     49                     50                     51
                      A                      A                      A
 Frequencies --   3094.0556              3105.6190              3109.5209
 Red. masses --      1.1005                 1.1031                 1.1018
 Frc consts  --      6.2070                 6.2687                 6.2767
 IR Inten    --     45.0543                69.7769                42.2730

 - Thermochemistry -
 -------------------
 Temperature   298.150 Kelvin.  Pressure   1.00000 Atm.
 Atom     1 has atomic number  6 and mass  12.00000

 Molecular mass:    85.10173 amu.
 Principal axes and moments of inertia in atomic units:
                           1         2         3
     Eigenvalues --   284.909231056.149531213.32895
           X            0.99999   0.00012  -0.00357
           Y           -0.00012   1.00000  -0.00001
           Z            0.00357   0.00001   0.99999
 This molecule is an asymmetric top.
 Rotational symmetry number  1.
 Rotational temperatures (Kelvin)      0.30400     0.08201     0.07139
 Rotational constants (GHZ):           6.33444     1.70879     1.48743
 Zero-point vibrational energy     458255.5 (Joules/Mol)
                                  109.52569 (Kcal/Mol)
 Warning -- explicit consideration of  10 degrees of freedom as
           vibrations may cause significant error
 Vibrational temperatures:     13.94   101.68   133.10   155.51   213.69
          (Kelvin)            349.60   421.12   479.96   550.48   641.07
                             1077.78  1123.77  1266.31  1272.27  1379.58
                             1428.34  1455.62  1497.50  1506.31  1553.84
                             1588.15  1799.88  1854.44  1898.72  1920.27
                             1960.32  1997.15  2055.53  2068.73  2080.24
                             2158.10  2164.87  2171.11  2179.93  2189.25
                             2197.64  2199.15  2213.07  4237.68  4246.99
                             4304.10  4365.59  4370.34  4373.87  4375.91
                             4380.05  4416.16  4448.23  4451.65  4468.29
                             4473.90

 Zero-point correction=                           0.174540 (Hartree/Particle)
 Thermal correction to Energy=                    0.183743
 Thermal correction to Enthalpy=                  0.184687
 Thermal correction to Gibbs Free Energy=         0.138230
 Sum of electronic and zero-point Energies=           -236.249612
 Sum of electronic and thermal Energies=              -236.240409
 Sum of electronic and thermal Enthalpies=            -236.239465
 Sum of electronic and thermal Free Energies=         -236.285922

                     E (Thermal)             CV                S
                      KCal/Mol        Cal/Mol-Kelvin    Cal/Mol-Kelvin
 Total                  115.300             30.221             97.778
 Electronic               0.000              0.000              1.377
 Translational            0.889              2.981             39.237
 Rotational               0.889              2.981             27.392
 Vibrational            113.523             24.260             29.770
 Vibration     1          0.593              1.987              8.074
 Vibration     2          0.598              1.968              4.135
 Vibration     3          0.602              1.955              3.606
 Vibration     4          0.606              1.943              3.303
 Vibration     5          0.618              1.904              2.691
 Vibration     6          0.659              1.774              1.781
 Vibration     7          0.688              1.687              1.458
 Vibration     8          0.715              1.608              1.243
 Vibration     9          0.752              1.507              1.029
 Vibration    10          0.805              1.371              0.809

 Normal termination of Gaussian 09 at Sat Nov  7 02:36:57 2015.
