 Gaussian 09, Revision D.01,
 Gaussian 09:  ES64L-G09RevD.01 24-Apr-2013

 ----------------------------------------------
 #p B3LYP/6-31G(d) opt=tight int=ultrafine freq
 ----------------------------------------------

 ---------------------------------------------
 using B3LYP/6-31G(d) to do opt and freq calc.
 ---------------------------------------------
 Symbolic Z-matrix:
 Charge =  0 Multiplicity = 2

 SCF Done:  E(UB3LYP) =  -236.401585253     A.U. after   14 cycles
 SCF Done:  E(UB3LYP) =  -236.409409532     A.U. after   13 cycles
 SCF Done:  E(UB3LYP) =  -236.411331317     A.U. after   13 cycles
 SCF Done:  E(UB3LYP) =  -236.411473578     A.U. after   11 cycles
 SCF Done:  E(UB3LYP) =  -236.411512564     A.U. after   11 cycles
 SCF Done:  E(UB3LYP) =  -236.411531678     A.U. after   11 cycles
 SCF Done:  E(UB3LYP) =  -236.411539831     A.U. after   10 cycles
 SCF Done:  E(UB3LYP) =  -236.411548827     A.U. after   11 cycles
 SCF Done:  E(UB3LYP) =  -236.411555384     A.U. after   11 cycles
 SCF Done:  E(UB3LYP) =  -236.411560193     A.U. after   11 cycles
 SCF Done:  E(UB3LYP) =  -236.411759236     A.U. after   11 cycles
 SCF Done:  E(UB3LYP) =  -236.411775337     A.U. after   10 cycles
 SCF Done:  E(UB3LYP) =  -236.411777901     A.U. after    9 cycles
 SCF Done:  E(UB3LYP) =  -236.411778143     A.U. after    8 cycles
 SCF Done:  E(UB3LYP) =  -236.411778158     A.U. after    7 cycles
 SCF Done:  E(UB3LYP) =  -236.411778160     A.U. after    6 cycles
 SCF Done:  E(UB3LYP) =  -236.411778160     A.U. after    4 cycles
 SCF Done:  E(UB3LYP) =  -236.411778160     A.U. after    4 cycles
 SCF Done:  E(UB3LYP) =  -236.411778160     A.U. after    4 cycles
 Optimization completed.
    -- Stationary point found.
 Normal termination of Gaussian 09 at Sat Nov  7 02:29:51 2015.

 --------------------------------------------------------------------
 #P Geom=AllCheck Guess=TCheck SCRF=Check GenChk UB3LYP/6-31G(d) Freq
 --------------------------------------------------------------------

 Structure from the checkpoint file:  "/state/partition1/Gau-3194.chk"
 ---------------------------------------------
 using B3LYP/6-31G(d) to do opt and freq calc.
 ---------------------------------------------
 Charge =  0 Multiplicity = 2

                         Standard orientation:
 ---------------------------------------------------------------------
 Center     Atomic      Atomic             Coordinates (Angstroms)
 Number     Number       Type             X           Y           Z
 ---------------------------------------------------------------------
      1          6           0        2.156743   -1.096862    0.031324
      2          1           0        1.908094   -2.154489    0.042376
      3          1           0        3.204235   -0.825527    0.127352
      4          6           0        1.124076   -0.070398   -0.312310
      5          1           0        1.054587   -0.004423   -1.417474
      6          6           0       -0.273825   -0.500717    0.191156
      7          1           0       -0.267114   -0.511970    1.291026
      8          1           0       -0.449140   -1.540413   -0.121949
      9          6           0       -1.440067    0.362815   -0.307507
     10          1           0       -1.412099    0.408600   -1.405939
     11          1           0       -1.320501    1.395720    0.044250
     12          6           0       -2.805210   -0.165939    0.145952
     13          1           0       -2.874892   -0.195980    1.240350
     14          1           0       -3.621560    0.466122   -0.222015
     15          1           0       -2.979171   -1.184177   -0.223416
     16          6           0        1.539004    1.323218    0.195449
     17          1           0        0.848426    2.102499   -0.143006
     18          1           0        1.565680    1.344188    1.291906
     19          1           0        2.539131    1.587146   -0.167839
 ---------------------------------------------------------------------

 SCF Done:  E(UB3LYP) =  -236.411778160     A.U. after    1 cycles

 The electronic state is 2-A.
 Alpha  occ. eigenvalues --  -10.18918 -10.18184 -10.17743 -10.17564 -10.17131
 Alpha  occ. eigenvalues --  -10.17113  -0.80905  -0.75702  -0.67549  -0.66595
 Alpha  occ. eigenvalues --   -0.58733  -0.55274  -0.46569  -0.44443  -0.43681
 Alpha  occ. eigenvalues --   -0.41646  -0.39857  -0.37828  -0.36428  -0.35200
 Alpha  occ. eigenvalues --   -0.34512  -0.32297  -0.31790  -0.31399  -0.19536
 Alpha virt. eigenvalues --    0.09218   0.11515   0.12668   0.13169   0.14458
 Alpha virt. eigenvalues --    0.15668   0.16649   0.17340   0.17952   0.18524
 Alpha virt. eigenvalues --    0.19456   0.21148   0.22199   0.24160   0.25523

  Beta  occ. eigenvalues --  -10.19005 -10.17739 -10.17520 -10.17131 -10.17080
  Beta  occ. eigenvalues --  -10.16811  -0.80458  -0.75312  -0.67380  -0.64675
  Beta  occ. eigenvalues --   -0.58192  -0.54487  -0.46394  -0.44035  -0.43267
  Beta  occ. eigenvalues --   -0.41325  -0.39626  -0.37753  -0.36301  -0.34882
  Beta  occ. eigenvalues --   -0.33990  -0.32002  -0.31608  -0.31152
  Beta virt. eigenvalues --   -0.03647   0.09332   0.11687   0.12765   0.13392
  Beta virt. eigenvalues --    0.15288   0.16018   0.16732   0.17542   0.18143
  Beta virt. eigenvalues --    0.18716   0.19509   0.21330   0.22270   0.24458

 Mulliken charges and spin densities:
               1          2
     1  C   -0.314462   1.086700
     2  H    0.135763  -0.051013
     3  H    0.136231  -0.051027
     4  C   -0.068507  -0.070009
     5  H    0.131040   0.054330
     6  C   -0.247761   0.014907
     7  H    0.130394   0.001209
     8  H    0.125789  -0.001146
     9  C   -0.254921   0.003109
    10  H    0.129406  -0.000082
    11  H    0.135771   0.000041
    12  C   -0.441939  -0.000324
    13  H    0.142187   0.000128
    14  H    0.141512   0.000396
    15  H    0.141275   0.000006
    16  C   -0.451888   0.010135
    17  H    0.144412   0.001623
    18  H    0.144556   0.001935
    19  H    0.141141  -0.000921
 Sum of Mulliken charges =   0.00000   1.00000

 Dipole moment (field-independent basis, Debye):
    X=             -0.1314    Y=              0.1281    Z=             -0.1800  Tot=              0.2571
 Quadrupole moment (field-independent basis, Debye-Ang):
   XX=            -41.0579   YY=            -40.5589   ZZ=            -41.1075
   XY=              0.2335   XZ=             -0.0858   YZ=              0.1695

  Exact polarizability:  74.320  -0.782  62.491   1.042  -0.682  53.170
 Approx polarizability:  85.709  -0.934  84.299   1.768  -0.982  77.827

                      1                      2                      3
                      A                      A                      A
 Frequencies --     76.3096               112.7733               122.3958
 Red. masses --      1.6697                 2.1696                 1.0410
 Frc consts  --      0.0057                 0.0163                 0.0092
 IR Inten    --      0.0050                 0.0163                 0.1897

                      4                      5                      6
                      A                      A                      A
 Frequencies --    185.7580               237.4331               254.1866
 Red. masses --      2.5656                 1.0801                 1.1210
 Frc consts  --      0.0522                 0.0359                 0.0427
 IR Inten    --      0.0679                 0.0406                 0.0548

                      7                      8                      9
                      A                      A                      A
 Frequencies --    319.7925               380.6527               408.8619
 Red. masses --      2.4964                 2.3062                 1.4444
 Frc consts  --      0.1504                 0.1969                 0.1423
 IR Inten    --      0.0151                 0.5772                18.6527

                     10                     11                     12
                      A                      A                      A
 Frequencies --    448.3120               515.6841               751.0585
 Red. masses --      2.4890                 2.0840                 1.1199
 Frc consts  --      0.2947                 0.3265                 0.3722
 IR Inten    --      0.2442                18.8572                 3.0864

                     13                     14                     15
                      A                      A                      A
 Frequencies --    834.1291               872.0375               907.5480
 Red. masses --      2.2875                 1.3059                 1.7329
 Frc consts  --      0.9377                 0.5851                 0.8409
 IR Inten    --      0.5086                 0.6199                 0.6822

                     16                     17                     18
                      A                      A                      A
 Frequencies --    946.6887               979.5967              1012.2701
 Red. masses --      1.5457                 1.6727                 1.3333
 Frc consts  --      0.8162                 0.9457                 0.8049
 IR Inten    --      0.8708                 2.7192                 0.4642

                     19                     20                     21
                      A                      A                      A
 Frequencies --   1056.6537              1088.7031              1119.2961
 Red. masses --      2.3216                 1.9970                 1.6025
 Frc consts  --      1.5272                 1.3946                 1.1828
 IR Inten    --      0.2734                 0.6267                 0.7759

                     22                     23                     24
                      A                      A                      A
 Frequencies --   1184.4788              1210.4708              1270.4810
 Red. masses --      1.9591                 1.9082                 1.4593
 Frc consts  --      1.6195                 1.6473                 1.3878
 IR Inten    --      0.0966                 2.0108                 4.0196

                     25                     26                     27
                      A                      A                      A
 Frequencies --   1295.5980              1340.4486              1353.9668
 Red. masses --      1.2704                 1.1864                 1.4464
 Frc consts  --      1.2564                 1.2560                 1.5622
 IR Inten    --      1.2148                 0.5975                 0.9574

                     28                     29                     30
                      A                      A                      A
 Frequencies --   1364.8862              1415.1990              1434.0673
 Red. masses --      1.3042                 1.5255                 1.2461
 Frc consts  --      1.4315                 1.8001                 1.5099
 IR Inten    --      1.0029                 0.5087                 2.9013

                     31                     32                     33
                      A                      A                      A
 Frequencies --   1441.1887              1487.5419              1511.9507
 Red. masses --      1.2394                 1.1660                 1.0788
 Frc consts  --      1.5168                 1.5202                 1.4530
 IR Inten    --      1.7254                 0.2504                 0.1389

                     34                     35                     36
                      A                      A                      A
 Frequencies --   1523.7447              1529.0091              1529.7304
 Red. masses --      1.0625                 1.0528                 1.0426
 Frc consts  --      1.4534                 1.4502                 1.4374
 IR Inten    --      0.7022                 2.9409                 6.4789

                     37                     38                     39
                      A                      A                      A
 Frequencies --   1533.5009              1540.5021              2900.9770
 Red. masses --      1.0487                 1.0791                 1.0784
 Frc consts  --      1.4530                 1.5088                 5.3471
 IR Inten    --      3.4585                 4.5295                34.2173

                     40                     41                     42
                      A                      A                      A
 Frequencies --   3016.3877              3027.7782              3040.9339
 Red. masses --      1.0588                 1.0656                 1.0363
 Frc consts  --      5.6757                 5.7556                 5.6462
 IR Inten    --     13.6765                39.1354                39.9961

                     43                     44                     45
                      A                      A                      A
 Frequencies --   3044.9334              3047.3903              3070.8004
 Red. masses --      1.0458                 1.0869                 1.1020
 Frc consts  --      5.7129                 5.9468                 6.1226
 IR Inten    --     20.3746                 9.6311                39.4212

                     46                     47                     48
                      A                      A                      A
 Frequencies --   3106.3380              3108.3343              3110.3188
 Red. masses --      1.1030                 1.1023                 1.1019
 Frc consts  --      6.2705                 6.2748                 6.2806
 IR Inten    --     55.2170                47.7259                38.9255

                     49                     50                     51
                      A                      A                      A
 Frequencies --   3122.1787              3156.1385              3253.4000
 Red. masses --      1.1010                 1.0510                 1.1182
 Frc consts  --      6.3233                 6.1686                 6.9734
 IR Inten    --     36.5074                21.6973                21.4396

 - Thermochemistry -
 -------------------
 Temperature   298.150 Kelvin.  Pressure   1.00000 Atm.
 Atom     1 has atomic number  6 and mass  12.00000

 Molecular mass:    85.10173 amu.
 Principal axes and moments of inertia in atomic units:
                           1         2         3
     Eigenvalues --   262.900241041.132111214.17306
           X            0.99996   0.00888   0.00000
           Y           -0.00888   0.99996  -0.00174
           Z           -0.00001   0.00174   1.00000
 This molecule is an asymmetric top.
 Rotational symmetry number  1.
 Rotational temperatures (Kelvin)      0.32946     0.08319     0.07134
 Rotational constants (GHZ):           6.86474     1.73344     1.48640
 Zero-point vibrational energy     458186.6 (Joules/Mol)
                                  109.50922 (Kcal/Mol)
 Warning -- explicit consideration of  11 degrees of freedom as
           vibrations may cause significant error
 Vibrational temperatures:    109.79   162.26   176.10   267.26   341.61
          (Kelvin)            365.72   460.11   547.67   588.26   645.02
                              741.95  1080.60  1200.12  1254.67  1305.76
                             1362.07  1409.42  1456.43  1520.29  1566.40
                             1610.42  1704.20  1741.60  1827.94  1864.07
                             1928.60  1948.05  1963.76  2036.15  2063.30
                             2073.55  2140.24  2175.36  2192.33  2199.90
                             2200.94  2206.36  2216.44  4173.85  4339.90
                             4356.29  4375.22  4380.97  4384.51  4418.19
                             4469.32  4472.19  4475.05  4492.11  4540.97
                             4680.91

 Zero-point correction=                           0.174514 (Hartree/Particle)
 Thermal correction to Energy=                    0.183213
 Thermal correction to Enthalpy=                  0.184157
 Thermal correction to Gibbs Free Energy=         0.141286
 Sum of electronic and zero-point Energies=           -236.237264
 Sum of electronic and thermal Energies=              -236.228565
 Sum of electronic and thermal Enthalpies=            -236.227621
 Sum of electronic and thermal Free Energies=         -236.270493

                     E (Thermal)             CV                S
                      KCal/Mol        Cal/Mol-Kelvin    Cal/Mol-Kelvin
 Total                  114.968             30.682             90.231
 Electronic               0.000              0.000              1.377
 Translational            0.889              2.981             39.237
 Rotational               0.889              2.981             27.299
 Vibrational            113.190             24.720             22.317
 Vibration     1          0.599              1.965              3.984
 Vibration     2          0.607              1.939              3.221
 Vibration     3          0.610              1.930              3.062
 Vibration     4          0.632              1.859              2.270
 Vibration     5          0.656              1.783              1.822
 Vibration     6          0.665              1.756              1.701
 Vibration     7          0.706              1.636              1.311
 Vibration     8          0.750              1.511              1.037
 Vibration     9          0.773              1.451              0.931
 Vibration    10          0.807              1.365              0.801
 Vibration    11          0.871              1.215              0.620

 Optimization completed.
    -- Stationary point found.
 Normal termination of Gaussian 09 at Sat Nov  7 02:36:47 2015.
