 Gaussian 09, Revision A.01,
 Gaussian 09:  EM64L-G09RevA.01  8-May-2009

 ----------
 #p PM6 opt
 ----------

 ----------------------------------
 using PM6 to do opt and freq calc.
 ----------------------------------
 Symbolic Z-matrix:
 Charge =  0 Multiplicity = 1

 SCF Done:  E(RPM6) = -0.541782368120E-01 A.U. after   13 cycles
 SCF Done:  E(RPM6) = -0.569215031648E-01 A.U. after   12 cycles
 SCF Done:  E(RPM6) = -0.572577925001E-01 A.U. after   12 cycles
 SCF Done:  E(RPM6) = -0.574189308917E-01 A.U. after   12 cycles
 SCF Done:  E(RPM6) = -0.575395347890E-01 A.U. after   12 cycles
 SCF Done:  E(RPM6) = -0.575531687349E-01 A.U. after   10 cycles
 SCF Done:  E(RPM6) = -0.575619055172E-01 A.U. after   10 cycles
 SCF Done:  E(RPM6) = -0.575638955596E-01 A.U. after    9 cycles
 SCF Done:  E(RPM6) = -0.575644685600E-01 A.U. after    8 cycles
 SCF Done:  E(RPM6) = -0.575646089801E-01 A.U. after    8 cycles
 SCF Done:  E(RPM6) = -0.575646550123E-01 A.U. after    7 cycles
 SCF Done:  E(RPM6) = -0.575646670322E-01 A.U. after    7 cycles
 Optimization completed.
    -- Stationary point found.

                         Standard orientation:
 ---------------------------------------------------------------------
 Center     Atomic      Atomic             Coordinates (Angstroms)
 Number     Number       Type             X           Y           Z
 ---------------------------------------------------------------------
      1          6           0        2.002804   -1.039445   -0.115071
      2          1           0        1.675799   -2.077043   -0.236932
      3          1           0        2.471487   -0.954497    0.870941
      4          1           0        2.780608   -0.850840   -0.862438
      5          6           0        0.831775   -0.058816   -0.272484
      6          1           0        0.378093   -0.214236   -1.283381
      7          6           0       -0.247122   -0.343349    0.794393
      8          1           0        0.121908   -0.025407    1.787795
      9          1           0       -0.408477   -1.435597    0.873758
     10          6           0       -1.585265    0.349622    0.501745
     11          1           0       -1.411907    1.419451    0.270003
     12          1           0       -2.206957    0.338362    1.418866
     13          6           0       -2.355921   -0.306834   -0.641998
     14          1           0       -2.594472   -1.352662   -0.418802
     15          1           0       -3.299973    0.213631   -0.835202
     16          1           0       -1.776725   -0.296854   -1.572979
     17          6           0        1.333862    1.388538   -0.186142
     18          1           0        0.509000    2.101013   -0.298141
     19          1           0        1.815639    1.592928    0.775588
     20          1           0        2.065181    1.603456   -0.971732
 ---------------------------------------------------------------------

 The electronic state is 1-A.
 Alpha  occ. eigenvalues --   -1.06359  -0.98466  -0.88320  -0.86610  -0.76169
 Alpha  occ. eigenvalues --   -0.69712  -0.58226  -0.56981  -0.53226  -0.52465
 Alpha  occ. eigenvalues --   -0.51164  -0.48456  -0.47511  -0.45082  -0.44299
 Alpha  occ. eigenvalues --   -0.44026  -0.41231  -0.40986  -0.39855
 Alpha virt. eigenvalues --    0.15475   0.16269   0.16666   0.17625   0.18162
 Alpha virt. eigenvalues --    0.21126   0.21776   0.22142   0.22334   0.22338
 Alpha virt. eigenvalues --    0.22516   0.22646   0.23125   0.23917   0.24481

 Mulliken atomic charges:
              1
     1  C   -0.506432
     2  H    0.147750
     3  H    0.151004
     4  H    0.149471
     5  C    0.033474
     6  H    0.110860
     7  C   -0.308337
     8  H    0.133254
     9  H    0.136343
    10  C   -0.213011
    11  H    0.126610
    12  H    0.121025
    13  C   -0.462370
    14  H    0.145268
    15  H    0.141604
    16  H    0.147628
    17  C   -0.500021
    18  H    0.149192
    19  H    0.149848
    20  H    0.146840
 Sum of Mulliken atomic charges =   0.00000

 Dipole moment (field-independent basis, Debye):
    X=              0.0432    Y=             -0.0107    Z=              0.0182  Tot=              0.0481
 N-N= 1.673152985294D+02 E-N=-2.555073521135D+02  KE=-5.625546767028D+01
 Leave Link  601 at Mon Sep 14 19:15:10 2015, MaxMem=  402653184 cpu:       0.0
 (Enter /share/apps/g09/l9999.exe)
 1\1\GINC-COMPUTE-0-0\FOpt\RPM6\ZDO\C6H14\HETANJIN\14-Sep-2015\0\\#p PM
 6 opt\\using PM6 to do opt and freq calc.\\0,1\C,0.3130352137,-2.52753
 1378,1.660450624\H,0.2454524596,-1.9524909086,2.5895111223\H,1.3350634
 102,-2.423598086,1.2812987938\H,0.1664834835,-3.5821580427,1.916172306
 8\C,-0.7241778846,-2.0562979485,0.6309603615\H,-1.7411481041,-2.158591
 656,1.0861534635\C,-0.4927532786,-0.569654253,0.2852184644\H,0.4248381
 146,-0.4701468622,-0.3248981484\H,-0.2941174158,-0.0014245631,1.214196

 Normal termination of Gaussian 09 at Mon Sep 14 19:15:10 2015.
