 Gaussian 09, Revision A.01,
 Gaussian 09:  EM64L-G09RevA.01  8-May-2009

 -----------------------------------------
 #p B3LYP/6-31G(d) opt=tight int=ultrafine
 -----------------------------------------

 ---------------------------------------------
 using B3LYP/6-31G(d) to do opt and freq calc.
 ---------------------------------------------
 Symbolic Z-matrix:
 Charge =  0 Multiplicity = 1

 SCF Done:  E(RB3LYP) =  -237.083518562     A.U. after   12 cycles
 SCF Done:  E(RB3LYP) =  -237.084557004     A.U. after   10 cycles
 SCF Done:  E(RB3LYP) =  -237.084701417     A.U. after    9 cycles
 SCF Done:  E(RB3LYP) =  -237.084733911     A.U. after    9 cycles
 SCF Done:  E(RB3LYP) =  -237.084739435     A.U. after    8 cycles
 SCF Done:  E(RB3LYP) =  -237.084739891     A.U. after    6 cycles
 SCF Done:  E(RB3LYP) =  -237.084739914     A.U. after    5 cycles
 SCF Done:  E(RB3LYP) =  -237.084739914     A.U. after    5 cycles
 SCF Done:  E(RB3LYP) =  -237.084739914     A.U. after    3 cycles
 Optimization completed.
    -- Stationary point found.

                         Standard orientation:
 ---------------------------------------------------------------------
 Center     Atomic      Atomic             Coordinates (Angstroms)
 Number     Number       Type             X           Y           Z
 ---------------------------------------------------------------------
      1          6           0        2.158795   -1.038263    0.033292
      2          1           0        1.927533   -2.029220   -0.375566
      3          1           0        2.248000   -1.140771    1.122904
      4          1           0        3.140067   -0.736397   -0.352086
      5          6           0        1.075128   -0.013246   -0.333942
      6          1           0        1.027368    0.044919   -1.432842
      7          6           0       -0.305207   -0.482861    0.167105
      8          1           0       -0.293649   -0.515776    1.267932
      9          1           0       -0.461370   -1.520582   -0.163410
     10          6           0       -1.498622    0.360983   -0.301937
     11          1           0       -1.481225    0.432686   -1.399145
     12          1           0       -1.403319    1.388404    0.072469
     13          6           0       -2.846191   -0.213217    0.149104
     14          1           0       -2.906210   -0.270582    1.243060
     15          1           0       -3.681826    0.405537   -0.197700
     16          1           0       -2.996731   -1.226895   -0.242527
     17          6           0        1.452040    1.379337    0.194906
     18          1           0        0.736885    2.147560   -0.117982
     19          1           0        1.487579    1.382705    1.292645
     20          1           0        2.441242    1.682010   -0.168923
 ---------------------------------------------------------------------

 The electronic state is 1-A.
 Alpha  occ. eigenvalues --  -10.18306 -10.17579 -10.17248 -10.17016 -10.16811
 Alpha  occ. eigenvalues --  -10.16807  -0.80550  -0.75519  -0.67622  -0.66928
 Alpha  occ. eigenvalues --   -0.58798  -0.55159  -0.46603  -0.43950  -0.43383
 Alpha  occ. eigenvalues --   -0.41205  -0.39201  -0.37763  -0.37395  -0.35934
 Alpha  occ. eigenvalues --   -0.34337  -0.32923  -0.31443  -0.31140  -0.30443
 Alpha virt. eigenvalues --    0.08741   0.11080   0.12371   0.13037   0.14994
 Alpha virt. eigenvalues --    0.15863   0.16481   0.16976   0.17946   0.18665
 Alpha virt. eigenvalues --    0.19452   0.19896   0.21712   0.22067   0.23745

 Mulliken atomic charges:
              1
     1  C   -0.441887
     2  H    0.138554
     3  H    0.137739
     4  H    0.138191
     5  C   -0.065054
     6  H    0.118611
     7  C   -0.238599
     8  H    0.121984
     9  H    0.123447
    10  C   -0.253042
    11  H    0.128850
    12  H    0.134725
    13  C   -0.441782
    14  H    0.141218
    15  H    0.140753
    16  H    0.140799
    17  C   -0.444441
    18  H    0.144235
    19  H    0.136908
    20  H    0.138793
 Sum of Mulliken atomic charges =   0.00000

 Dipole moment (field-independent basis, Debye):
    X=             -0.0159    Y=              0.0332    Z=             -0.0783  Tot=              0.0865
 Quadrupole moment (field-independent basis, Debye-Ang):
   XX=            -42.1059   YY=            -41.7336   ZZ=            -41.1457
   XY=             -0.0422   XZ=             -0.0428   YZ=              0.1559

 Normal termination of Gaussian 09 at Fri Sep 18 13:30:13 2015.
