 Gaussian 09, Revision D.01,
 Gaussian 09:  ES64L-G09RevD.01 24-Apr-2013

 ------------------------------------------------
 #p B3LYP/6-31G(d) opt=(tight) int=ultrafine freq
 ------------------------------------------------

 ---------------------------------------------
 using B3LYP/6-31G(d) to do opt and freq calc.
 ---------------------------------------------
 Symbolic Z-matrix:
 Charge =  0 Multiplicity = 2

 SCF Done:  E(UB3LYP) =  -236.404476998     A.U. after   14 cycles
 SCF Done:  E(UB3LYP) =  -236.410751967     A.U. after   12 cycles
 SCF Done:  E(UB3LYP) =  -236.411696535     A.U. after   12 cycles
 SCF Done:  E(UB3LYP) =  -236.411725671     A.U. after   11 cycles
 SCF Done:  E(UB3LYP) =  -236.411834898     A.U. after   11 cycles
 SCF Done:  E(UB3LYP) =  -236.411837466     A.U. after    9 cycles
 SCF Done:  E(UB3LYP) =  -236.411838533     A.U. after    8 cycles
 SCF Done:  E(UB3LYP) =  -236.411841238     A.U. after   10 cycles
 SCF Done:  E(UB3LYP) =  -236.411843963     A.U. after   10 cycles
 SCF Done:  E(UB3LYP) =  -236.411845854     A.U. after   10 cycles
 SCF Done:  E(UB3LYP) =  -236.411843927     A.U. after   12 cycles
 SCF Done:  E(UB3LYP) =  -236.411850109     A.U. after   11 cycles
 SCF Done:  E(UB3LYP) =  -236.411854042     A.U. after    9 cycles
 SCF Done:  E(UB3LYP) =  -236.411854739     A.U. after    8 cycles
 SCF Done:  E(UB3LYP) =  -236.411854837     A.U. after   10 cycles
 SCF Done:  E(UB3LYP) =  -236.411854993     A.U. after    9 cycles
 SCF Done:  E(UB3LYP) =  -236.411854994     A.U. after    6 cycles
 SCF Done:  E(UB3LYP) =  -236.411854994     A.U. after    4 cycles
 SCF Done:  E(UB3LYP) =  -236.411854994     A.U. after    4 cycles
 Optimization completed.
    -- Stationary point found.
 Normal termination of Gaussian 09 at Mon Apr 11 11:09:58 2016.

 --------------------------------------------------------------------
 #P Geom=AllCheck Guess=TCheck SCRF=Check GenChk UB3LYP/6-31G(d) Freq
 --------------------------------------------------------------------

 Structure from the checkpoint file:  "/WORK/tsinghua_xqyou_1/scratch/Gau-25821.chk"
 ---------------------------------------------
 using B3LYP/6-31G(d) to do opt and freq calc.
 ---------------------------------------------
 Charge =  0 Multiplicity = 2

                         Standard orientation:
 ---------------------------------------------------------------------
 Center     Atomic      Atomic             Coordinates (Angstroms)
 Number     Number       Type             X           Y           Z
 ---------------------------------------------------------------------
      1          6           0        2.578532   -0.097400    0.293412
      2          1           0        2.583512   -0.160918    1.388801
      3          1           0        2.712332    0.956193    0.023440
      4          1           0        3.447471   -0.654145   -0.075938
      5          6           0        1.275303   -0.657175   -0.284741
      6          1           0        1.310935   -0.614889   -1.383317
      7          1           0        1.186342   -1.720481   -0.022541
      8          6           0        0.005504    0.082242    0.199155
      9          1           0        0.000169    0.058217    1.300321
     10          6           0       -1.266312   -0.675660   -0.277603
     11          1           0       -1.171645   -1.729682    0.019873
     12          1           0       -1.291523   -0.665358   -1.376418
     13          6           0       -2.577491   -0.107695    0.272883
     14          1           0       -2.728360    0.929486   -0.046630
     15          1           0       -3.436918   -0.693669   -0.072628
     16          1           0       -2.585479   -0.122044    1.370159
     17          6           0       -0.000537    1.512257   -0.244277
     18          1           0       -0.322989    2.319138    0.405510
     19          1           0        0.206159    1.758735   -1.283605
 ---------------------------------------------------------------------

 SCF Done:  E(UB3LYP) =  -236.411854994     A.U. after    1 cycles

 The electronic state is 2-A.
 Alpha  occ. eigenvalues --  -10.18596 -10.18326 -10.17893 -10.17729 -10.16946
 Alpha  occ. eigenvalues --  -10.16828  -0.81041  -0.74489  -0.70081  -0.64144
 Alpha  occ. eigenvalues --   -0.59403  -0.55083  -0.46841  -0.44044  -0.42697
 Alpha  occ. eigenvalues --   -0.41883  -0.39259  -0.38845  -0.36808  -0.34848
 Alpha  occ. eigenvalues --   -0.33219  -0.32528  -0.32026  -0.31352  -0.19628
 Alpha virt. eigenvalues --    0.09264   0.12218   0.12413   0.13651   0.14509
 Alpha virt. eigenvalues --    0.15842   0.17196   0.17483   0.17932   0.18938
 Alpha virt. eigenvalues --    0.19833   0.20475   0.21362   0.22872   0.25411

  Beta  occ. eigenvalues --  -10.18683 -10.17758 -10.17667 -10.16953 -10.16939
  Beta  occ. eigenvalues --  -10.16817  -0.80459  -0.74370  -0.68880  -0.62529
  Beta  occ. eigenvalues --   -0.59257  -0.54417  -0.46452  -0.43515  -0.42633
  Beta  occ. eigenvalues --   -0.41388  -0.39172  -0.38552  -0.36522  -0.34767
  Beta  occ. eigenvalues --   -0.33131  -0.32118  -0.31488  -0.31064
  Beta virt. eigenvalues --   -0.04046   0.09418   0.12367   0.12794   0.14048
  Beta virt. eigenvalues --    0.14952   0.16414   0.17349   0.17496   0.18004
  Beta virt. eigenvalues --    0.19177   0.19894   0.20761   0.21640   0.23020

 Mulliken charges and spin densities:
               1          2
     1  C   -0.442458   0.006390
     2  H    0.139214   0.000281
     3  H    0.149056   0.001046
     4  H    0.139519  -0.000379
     5  C   -0.251675   0.023044
     6  H    0.127784  -0.001401
     7  H    0.127995   0.001576
     8  C   -0.069233  -0.075000
     9  H    0.119332   0.005653
    10  C   -0.245319   0.047338
    11  H    0.128336   0.008285
    12  H    0.129037  -0.001125
    13  C   -0.444446   0.003468
    14  H    0.147294   0.002519
    15  H    0.141033  -0.000623
    16  H    0.138736   0.000834
    17  C   -0.313780   1.080182
    18  H    0.143201  -0.051599
    19  H    0.136374  -0.050489
 Sum of Mulliken charges =   0.00000   1.00000

 Dipole moment (field-independent basis, Debye):
    X=             -0.1004    Y=             -0.1378    Z=             -0.0004  Tot=              0.1705
 Quadrupole moment (field-independent basis, Debye-Ang):
   XX=            -41.9495   YY=            -40.5878   ZZ=            -40.0196
   XY=             -0.2710   XZ=             -0.2913   YZ=             -0.1532

  Exact polarizability:  70.226  -0.257  62.536  -1.141  -0.234  57.493
 Approx polarizability:  79.879  -0.159  85.865  -1.707  -1.097  83.709

                      1                      2                      3
                      A                      A                      A
 Frequencies --     89.4753                95.7847               117.9063
 Red. masses --      1.0510                 2.4215                 1.4985
 Frc consts  --      0.0050                 0.0131                 0.0123
 IR Inten    --      1.7270                 0.0010                 0.1376

                      4                      5                      6
                      A                      A                      A
 Frequencies --    193.2342               222.3997               246.7313
 Red. masses --      2.5765                 1.0910                 1.2151
 Frc consts  --      0.0567                 0.0318                 0.0436
 IR Inten    --      0.0957                 0.0262                 0.0263

                      7                      8                      9
                      A                      A                      A
 Frequencies --    284.9869               382.1144               410.6987
 Red. masses --      1.9010                 2.5512                 1.7698
 Frc consts  --      0.0910                 0.2195                 0.1759
 IR Inten    --      1.7696                 1.9819                15.6022

                     10                     11                     12
                      A                      A                      A
 Frequencies --    436.9411               537.5899               781.9290
 Red. masses --      1.9857                 2.1546                 1.2018
 Frc consts  --      0.2234                 0.3669                 0.4329
 IR Inten    --      0.7613                28.3129                 0.2892

                     13                     14                     15
                      A                      A                      A
 Frequencies --    787.6559               824.8184               914.9719
 Red. masses --      1.5011                 1.4283                 2.2417
 Frc consts  --      0.5487                 0.5725                 1.1057
 IR Inten    --      3.0889                 1.7967                 2.6002

                     16                     17                     18
                      A                      A                      A
 Frequencies --    960.8345               994.3534              1031.4119
 Red. masses --      1.2714                 1.8151                 1.7063
 Frc consts  --      0.6916                 1.0574                 1.0695
 IR Inten    --      0.8849                 1.1300                 0.0006

                     19                     20                     21
                      A                      A                      A
 Frequencies --   1050.3535              1068.5335              1100.9706
 Red. masses --      1.6633                 2.6692                 1.8981
 Frc consts  --      1.0811                 1.7956                 1.3556
 IR Inten    --      2.7296                 0.5558                 2.2211

                     22                     23                     24
                      A                      A                      A
 Frequencies --   1173.1958              1205.9089              1287.6782
 Red. masses --      2.1564                 1.9636                 1.2947
 Frc consts  --      1.7487                 1.6824                 1.2648
 IR Inten    --      1.2532                 1.1149                 1.0037

                     25                     26                     27
                      A                      A                      A
 Frequencies --   1312.8084              1319.8102              1375.7478
 Red. masses --      1.2351                 1.1446                 1.3390
 Frc consts  --      1.2541                 1.1747                 1.4932
 IR Inten    --      1.2827                 3.4374                 3.5611

                     28                     29                     30
                      A                      A                      A
 Frequencies --   1387.3052              1397.6361              1436.3723
 Red. masses --      1.3787                 1.3637                 1.2361
 Frc consts  --      1.5634                 1.5695                 1.5025
 IR Inten    --      1.0779                 2.1925                 2.4401

                     31                     32                     33
                      A                      A                      A
 Frequencies --   1440.6184              1486.8053              1511.4194
 Red. masses --      1.2587                 1.1829                 1.0746
 Frc consts  --      1.5391                 1.5407                 1.4464
 IR Inten    --      1.7062                 0.1684                 0.1439

                     34                     35                     36
                      A                      A                      A
 Frequencies --   1522.6146              1526.7495              1527.9654
 Red. masses --      1.0708                 1.0416                 1.0415
 Frc consts  --      1.4626                 1.4305                 1.4326
 IR Inten    --      0.1713                 6.2979                 5.7301

                     37                     38                     39
                      A                      A                      A
 Frequencies --   1535.7686              1538.2919              3002.5703
 Red. masses --      1.0591                 1.0718                 1.0820
 Frc consts  --      1.4717                 1.4943                 5.7471
 IR Inten    --      1.7928                 4.1134                10.3178

                     40                     41                     42
                      A                      A                      A
 Frequencies --   3019.4954              3027.0127              3042.2258
 Red. masses --      1.0595                 1.0613                 1.0380
 Frc consts  --      5.6915                 5.7294                 5.6604
 IR Inten    --      2.2532                69.9213                44.7730

                     43                     44                     45
                      A                      A                      A
 Frequencies --   3043.2082              3053.5046              3063.4840
 Red. masses --      1.0369                 1.1004                 1.1017
 Frc consts  --      5.6576                 6.0452                 6.0919
 IR Inten    --     15.2161                 2.5350                51.0495

                     46                     47                     48
                      A                      A                      A
 Frequencies --   3105.9376              3106.6930              3115.5063
 Red. masses --      1.1017                 1.1016                 1.1025
 Frc consts  --      6.2617                 6.2643                 6.3052
 IR Inten    --     24.2614                70.6679                13.3573

                     49                     50                     51
                      A                      A                      A
 Frequencies --   3116.2205              3153.3170              3254.7431
 Red. masses --      1.1022                 1.0522                 1.1168
 Frc consts  --      6.3062                 6.1642                 6.9703
 IR Inten    --     64.9714                15.9358                16.7290

 - Thermochemistry -
 -------------------
 Temperature   298.150 Kelvin.  Pressure   1.00000 Atm.
 Atom     1 has atomic number  6 and mass  12.00000

 Molecular mass:    85.10173 amu.
 Principal axes and moments of inertia in atomic units:
                           1         2         3
     Eigenvalues --   259.92696 975.353931119.34187
           X            1.00000  -0.00129  -0.00107
           Y            0.00129   0.99998   0.00534
           Z            0.00106  -0.00534   0.99999
 This molecule is an asymmetric top.
 Rotational symmetry number  1.
 Rotational temperatures (Kelvin)      0.33322     0.08880     0.07738
 Rotational constants (GHZ):           6.94326     1.85034     1.61232
 Zero-point vibrational energy     458315.1 (Joules/Mol)
                                  109.53995 (Kcal/Mol)
 Warning -- explicit consideration of  11 degrees of freedom as
           vibrations may cause significant error
 Vibrational temperatures:    128.73   137.81   169.64   278.02   319.98
          (Kelvin)            354.99   410.03   549.78   590.90   628.66
                              773.47  1125.02  1133.26  1186.73  1316.44
                             1382.42  1430.65  1483.97  1511.22  1537.38
                             1584.05  1687.97  1735.03  1852.68  1888.84
                             1898.91  1979.39  1996.02  2010.88  2066.62
                             2072.73  2139.18  2174.59  2190.70  2196.65
                             2198.40  2209.63  2213.26  4320.02  4344.37
                             4355.19  4377.08  4378.49  4393.31  4407.66
                             4468.75  4469.83  4482.51  4483.54  4536.91
                             4682.84

 Zero-point correction=                           0.174563 (Hartree/Particle)
 Thermal correction to Energy=                    0.183342
 Thermal correction to Enthalpy=                  0.184286
 Thermal correction to Gibbs Free Energy=         0.141314
 Sum of electronic and zero-point Energies=           -236.237292
 Sum of electronic and thermal Energies=              -236.228513
 Sum of electronic and thermal Enthalpies=            -236.227569
 Sum of electronic and thermal Free Energies=         -236.270541

                     E (Thermal)             CV                S
                      KCal/Mol        Cal/Mol-Kelvin    Cal/Mol-Kelvin
 Total                  115.049             30.813             90.442
 Electronic               0.000              0.000              1.377
 Translational            0.889              2.981             39.237
 Rotational               0.889              2.981             27.142
 Vibrational            113.271             24.852             22.685
 Vibration     1          0.602              1.957              3.672
 Vibration     2          0.603              1.952              3.538
 Vibration     3          0.608              1.934              3.134
 Vibration     4          0.635              1.849              2.197
 Vibration     5          0.648              1.807              1.939
 Vibration     6          0.661              1.768              1.754
 Vibration     7          0.683              1.702              1.504
 Vibration     8          0.752              1.508              1.031
 Vibration     9          0.775              1.447              0.924
 Vibration    10          0.797              1.390              0.836
 Vibration    11          0.893              1.167              0.570

 Optimization completed.
    -- Stationary point found.
 Normal termination of Gaussian 09 at Mon Apr 11 11:14:21 2016.
