 Gaussian 09, Revision D.01,
 Gaussian 09:  ES64L-G09RevD.01 24-Apr-2013

 ----------------------------------------------
 #p B3LYP/6-31G(d) opt=tight int=ultrafine freq
 ----------------------------------------------

 ---------------------------------------------
 using B3LYP/6-31G(d) to do opt and freq calc.
 ---------------------------------------------
 Symbolic Z-matrix:
 Charge =  0 Multiplicity = 2

 SCF Done:  E(UB3LYP) =  -236.407291358     A.U. after   14 cycles
 SCF Done:  E(UB3LYP) =  -236.415328682     A.U. after   13 cycles
 SCF Done:  E(UB3LYP) =  -236.417044477     A.U. after   13 cycles
 SCF Done:  E(UB3LYP) =  -236.417346379     A.U. after   12 cycles
 SCF Done:  E(UB3LYP) =  -236.417405551     A.U. after   10 cycles
 SCF Done:  E(UB3LYP) =  -236.417430874     A.U. after    9 cycles
 SCF Done:  E(UB3LYP) =  -236.417461662     A.U. after   11 cycles
 SCF Done:  E(UB3LYP) =  -236.417472807     A.U. after   10 cycles
 SCF Done:  E(UB3LYP) =  -236.417475778     A.U. after   10 cycles
 SCF Done:  E(UB3LYP) =  -236.417475970     A.U. after    8 cycles
 SCF Done:  E(UB3LYP) =  -236.417476022     A.U. after    7 cycles
 SCF Done:  E(UB3LYP) =  -236.417476036     A.U. after    7 cycles
 SCF Done:  E(UB3LYP) =  -236.417476039     A.U. after    5 cycles
 SCF Done:  E(UB3LYP) =  -236.417476040     A.U. after    5 cycles
 Optimization completed.
    -- Stationary point found.
 Normal termination of Gaussian 09 at Sat Nov  7 02:23:20 2015.

 --------------------------------------------------------------------
 #P Geom=AllCheck Guess=TCheck SCRF=Check GenChk UB3LYP/6-31G(d) Freq
 --------------------------------------------------------------------

 Structure from the checkpoint file:  "/state/partition1/Gau-3901.chk"
 ---------------------------------------------
 using B3LYP/6-31G(d) to do opt and freq calc.
 ---------------------------------------------
 Charge =  0 Multiplicity = 2

                         Standard orientation:
 ---------------------------------------------------------------------
 Center     Atomic      Atomic             Coordinates (Angstroms)
 Number     Number       Type             X           Y           Z
 ---------------------------------------------------------------------
      1          6           0        1.538732   -0.634720   -0.874783
      2          1           0        1.352578   -0.474173   -1.943079
      3          1           0        1.607439   -1.716443   -0.705482
      4          1           0        2.513367   -0.195137   -0.629323
      5          6           0        0.417725   -0.010232   -0.017414
      6          6           0       -0.892837   -0.685933   -0.349308
      7          1           0       -0.848588   -1.754961   -0.553989
      8          6           0       -2.233717   -0.086683   -0.071039
      9          1           0       -2.363974    0.891924   -0.554102
     10          1           0       -3.039766   -0.739054   -0.422886
     11          1           0       -2.405773    0.082765    1.007522
     12          6           0        0.749202   -0.239519    1.482656
     13          1           0       -0.026395    0.186706    2.129626
     14          1           0        0.827147   -1.309228    1.709411
     15          1           0        1.704639    0.232751    1.747279
     16          6           0        0.359121    1.507867   -0.288766
     17          1           0        1.328324    1.973419   -0.072924
     18          1           0        0.112940    1.713028   -1.337393
     19          1           0       -0.391302    2.003717    0.337269
 ---------------------------------------------------------------------

 SCF Done:  E(UB3LYP) =  -236.417476040     A.U. after    1 cycles

 The electronic state is 2-A.
 Alpha  occ. eigenvalues --  -10.19382 -10.18028 -10.17572 -10.17045 -10.16856
 Alpha  occ. eigenvalues --  -10.16787  -0.81779  -0.73333  -0.67868  -0.67775
 Alpha  occ. eigenvalues --   -0.61431  -0.51784  -0.45691  -0.43515  -0.43415
 Alpha  occ. eigenvalues --   -0.41065  -0.40019  -0.38206  -0.37327  -0.36116
 Alpha  occ. eigenvalues --   -0.35925  -0.32597  -0.31745  -0.31445  -0.17779
 Alpha virt. eigenvalues --    0.08236   0.12050   0.13227   0.13878   0.14346
 Alpha virt. eigenvalues --    0.15837   0.16176   0.18253   0.19651   0.19842
 Alpha virt. eigenvalues --    0.20371   0.21316   0.22400   0.23115   0.24189

  Beta  occ. eigenvalues --  -10.19459 -10.17663 -10.16927 -10.16828 -10.16756
  Beta  occ. eigenvalues --  -10.16656  -0.81046  -0.72312  -0.67761  -0.67565
  Beta  occ. eigenvalues --   -0.60057  -0.50954  -0.45428  -0.43227  -0.42841
  Beta  occ. eigenvalues --   -0.40414  -0.39454  -0.37939  -0.37141  -0.35894
  Beta  occ. eigenvalues --   -0.35713  -0.32141  -0.31345  -0.31121
  Beta virt. eigenvalues --   -0.02812   0.08311   0.12383   0.13473   0.14024
  Beta virt. eigenvalues --    0.14525   0.15889   0.16300   0.18416   0.19740
  Beta virt. eigenvalues --    0.20217   0.20880   0.21896   0.22658   0.23333

 Mulliken charges and spin densities:
               1          2
     1  C   -0.443786   0.009529
     2  H    0.142431   0.001102
     3  H    0.136645  -0.000688
     4  H    0.135014   0.001900
     5  C    0.088487  -0.062528
     6  C   -0.098742   1.027647
     7  H    0.117701  -0.049360
     8  C   -0.481607  -0.082918
     9  H    0.155101   0.031415
    10  H    0.149707   0.003089
    11  H    0.148962   0.061014
    12  C   -0.436264   0.039928
    13  H    0.139485  -0.002258
    14  H    0.138636  -0.000921
    15  H    0.136941   0.013216
    16  C   -0.448671   0.009735
    17  H    0.137054   0.000102
    18  H    0.141915   0.000749
    19  H    0.140991  -0.000752
 Sum of Mulliken charges =   0.00000   1.00000

 Dipole moment (field-independent basis, Debye):
    X=             -0.0921    Y=              0.0368    Z=              0.1779  Tot=              0.2036
 Quadrupole moment (field-independent basis, Debye-Ang):
   XX=            -40.2930   YY=            -40.4328   ZZ=            -41.4573
   XY=              0.1175   XZ=             -0.0643   YZ=              0.0817

  Exact polarizability:  69.618  -0.153  61.677   0.130   1.076  58.335
 Approx polarizability:  88.044   0.108  84.416   0.555   2.250  79.754

                      1                      2                      3
                      A                      A                      A
 Frequencies --     62.1163                91.0758               218.9703
 Red. masses --      1.7211                 1.1819                 1.1649
 Frc consts  --      0.0039                 0.0058                 0.0329
 IR Inten    --      0.1671                 0.2473                 0.0798

                      4                      5                      6
                      A                      A                      A
 Frequencies --    252.9136               270.2758               283.0194
 Red. masses --      1.5746                 1.1799                 1.0496
 Frc consts  --      0.0593                 0.0508                 0.0495
 IR Inten    --      0.2779                 1.7556                 0.1837

                      7                      8                      9
                      A                      A                      A
 Frequencies --    296.7862               343.8405               370.0875
 Red. masses --      1.4635                 2.2753                 1.9032
 Frc consts  --      0.0760                 0.1585                 0.1536
 IR Inten    --      1.0554                 0.0086                 3.0568

                     10                     11                     12
                      A                      A                      A
 Frequencies --    402.0984               487.6493               514.8774
 Red. masses --      2.2559                 2.4775                 2.2637
 Frc consts  --      0.2149                 0.3471                 0.3536
 IR Inten    --      0.0744                 4.8590                 9.0495

                     13                     14                     15
                      A                      A                      A
 Frequencies --    718.6330               875.1971               926.4023
 Red. masses --      3.2380                 2.1096                 1.8624
 Frc consts  --      0.9852                 0.9521                 0.9417
 IR Inten    --      0.2591                 0.9167                 0.4169

                     16                     17                     18
                      A                      A                      A
 Frequencies --    941.4999               968.3655               998.1743
 Red. masses --      1.7626                 1.1981                 1.3303
 Frc consts  --      0.9205                 0.6619                 0.7810
 IR Inten    --      0.5530                 0.0032                 1.2320

                     19                     20                     21
                      A                      A                      A
 Frequencies --   1028.3454              1046.9094              1090.3945
 Red. masses --      1.3329                 1.4014                 1.4797
 Frc consts  --      0.8305                 0.9050                 1.0365
 IR Inten    --      1.0461                 0.2188                 3.8990

                     22                     23                     24
                      A                      A                      A
 Frequencies --   1130.4053              1215.7186              1242.4595
 Red. masses --      2.4292                 2.3349                 2.2859
 Frc consts  --      1.8288                 2.0332                 2.0791
 IR Inten    --      1.0633                 5.5313                 6.6609

                     25                     26                     27
                      A                      A                      A
 Frequencies --   1295.0351              1391.5626              1417.3725
 Red. masses --      2.5885                 1.5362                 1.2190
 Frc consts  --      2.5578                 1.7527                 1.4429
 IR Inten    --      4.7767                 0.6457                 2.7092

                     28                     29                     30
                      A                      A                      A
 Frequencies --   1424.1872              1440.3307              1455.1042
 Red. masses --      1.2471                 1.2837                 1.2360
 Frc consts  --      1.4903                 1.5690                 1.5419
 IR Inten    --      3.8012                 2.4913                 2.6297

                     31                     32                     33
                      A                      A                      A
 Frequencies --   1503.2730              1509.8807              1514.2976
 Red. masses --      1.0549                 1.0486                 1.0467
 Frc consts  --      1.4045                 1.4085                 1.4142
 IR Inten    --      5.7200                 1.0136                 1.2224

                     34                     35                     36
                      A                      A                      A
 Frequencies --   1516.7053              1520.4031              1532.9311
 Red. masses --      1.0433                 1.0471                 1.0558
 Frc consts  --      1.4140                 1.4262                 1.4617
 IR Inten    --      1.0949                 1.9638                 4.8400

                     37                     38                     39
                      A                      A                      A
 Frequencies --   1535.1491              1547.8569              2963.7195
 Red. masses --      1.0501                 1.0631                 1.0599
 Frc consts  --      1.4581                 1.5006                 5.4853
 IR Inten    --      4.5197                 8.1194                30.8131

                     40                     41                     42
                      A                      A                      A
 Frequencies --   3031.8018              3036.6710              3041.8388
 Red. masses --      1.0352                 1.0354                 1.0613
 Frc consts  --      5.6065                 5.6255                 5.7858
 IR Inten    --     29.2040                27.3450                24.3132

                     43                     44                     45
                      A                      A                      A
 Frequencies --   3046.0792              3096.6641              3102.1696
 Red. masses --      1.0488                 1.1007                 1.1023
 Frc consts  --      5.7334                 6.2191                 6.2500
 IR Inten    --     26.8966                 8.7825                20.1413

                     46                     47                     48
                      A                      A                      A
 Frequencies --   3106.8979              3108.8902              3110.9455
 Red. masses --      1.1022                 1.0971                 1.1012
 Frc consts  --      6.2687                 6.2474                 6.2790
 IR Inten    --     31.1212                41.2761                20.1563

                     49                     50                     51
                      A                      A                      A
 Frequencies --   3112.2096              3114.5790              3158.0808
 Red. masses --      1.1022                 1.1013                 1.0876
 Frc consts  --      6.2900                 6.2944                 6.3912
 IR Inten    --     54.1839                47.3373                37.2704

 - Thermochemistry -
 -------------------
 Temperature   298.150 Kelvin.  Pressure   1.00000 Atm.
 Atom     1 has atomic number  6 and mass  12.00000

 Molecular mass:    85.10173 amu.
 Principal axes and moments of inertia in atomic units:
                           1         2         3
     Eigenvalues --   414.55181 725.82263 732.40778
           X            0.99988  -0.01295  -0.00796
           Y            0.01275   0.99960  -0.02535
           Z            0.00829   0.02524   0.99965
 This molecule is an asymmetric top.
 Rotational symmetry number  1.
 Rotational temperatures (Kelvin)      0.20893     0.11933     0.11826
 Rotational constants (GHZ):           4.35348     2.48648     2.46412
 Zero-point vibrational energy     457038.4 (Joules/Mol)
                                  109.23480 (Kcal/Mol)
 Warning -- explicit consideration of  12 degrees of freedom as
           vibrations may cause significant error
 Vibrational temperatures:     89.37   131.04   315.05   363.89   388.87
          (Kelvin)            407.20   427.01   494.71   532.47   578.53
                              701.62   740.79  1033.95  1259.21  1332.88
                             1354.61  1393.26  1436.15  1479.56  1506.27
                             1568.83  1626.40  1749.15  1787.62  1863.26
                             2002.15  2039.28  2049.09  2072.31  2093.57
                             2162.87  2172.38  2178.73  2182.20  2187.52
                             2205.54  2208.73  2227.02  4264.13  4362.08
                             4369.09  4376.52  4382.62  4455.40  4463.32
                             4470.13  4472.99  4475.95  4477.77  4481.18
                             4543.77

 Zero-point correction=                           0.174077 (Hartree/Particle)
 Thermal correction to Energy=                    0.182832
 Thermal correction to Enthalpy=                  0.183776
 Thermal correction to Gibbs Free Energy=         0.141145
 Sum of electronic and zero-point Energies=           -236.243399
 Sum of electronic and thermal Energies=              -236.234644
 Sum of electronic and thermal Enthalpies=            -236.233700
 Sum of electronic and thermal Free Energies=         -236.276331

                     E (Thermal)             CV                S
                      KCal/Mol        Cal/Mol-Kelvin    Cal/Mol-Kelvin
 Total                  114.729             31.471             89.726
 Electronic               0.000              0.000              1.377
 Translational            0.889              2.981             39.237
 Rotational               0.889              2.981             26.891
 Vibrational            112.951             25.509             22.221
 Vibration     1          0.597              1.972              4.389
 Vibration     2          0.602              1.956              3.637
 Vibration     3          0.647              1.812              1.968
 Vibration     4          0.664              1.758              1.710
 Vibration     5          0.674              1.728              1.594
 Vibration     6          0.682              1.705              1.515
 Vibration     7          0.690              1.680              1.435
 Vibration     8          0.723              1.588              1.194
 Vibration     9          0.742              1.534              1.079
 Vibration    10          0.768              1.466              0.955
 Vibration    11          0.844              1.277              0.690
 Vibration    12          0.870              1.217              0.622

 Optimization completed.
    -- Stationary point found.
 Normal termination of Gaussian 09 at Sat Nov  7 02:31:17 2015.
