 Gaussian 09, Revision A.01,
 Gaussian 09:  EM64L-G09RevA.01  8-May-2009

 ----------
 #p PM6 opt
 ----------

 ----------------------------------
 using PM6 to do opt and freq calc.
 ----------------------------------
 Symbolic Z-matrix:
 Charge =  0 Multiplicity = 1

 SCF Done:  E(RPM6) = -0.538041315309E-01 A.U. after   13 cycles
 SCF Done:  E(RPM6) = -0.560691161127E-01 A.U. after   11 cycles
 SCF Done:  E(RPM6) = -0.562504657594E-01 A.U. after   11 cycles
 SCF Done:  E(RPM6) = -0.563005526658E-01 A.U. after   10 cycles
 SCF Done:  E(RPM6) = -0.563264144137E-01 A.U. after   11 cycles
 SCF Done:  E(RPM6) = -0.563376766319E-01 A.U. after   10 cycles
 SCF Done:  E(RPM6) = -0.563412696039E-01 A.U. after   10 cycles
 SCF Done:  E(RPM6) = -0.563427738347E-01 A.U. after    9 cycles
 SCF Done:  E(RPM6) = -0.563431480498E-01 A.U. after    8 cycles
 SCF Done:  E(RPM6) = -0.563432235787E-01 A.U. after    8 cycles
 SCF Done:  E(RPM6) = -0.563432388412E-01 A.U. after    7 cycles
 Optimization completed.
    -- Stationary point found.

                         Standard orientation:
 ---------------------------------------------------------------------
 Center     Atomic      Atomic             Coordinates (Angstroms)
 Number     Number       Type             X           Y           Z
 ---------------------------------------------------------------------
      1          6           0       -2.962525    0.522803    0.121774
      2          1           0       -2.806755    1.557807   -0.202966
      3          1           0       -3.069286    0.534872    1.212379
      4          1           0       -3.917212    0.187129   -0.297939
      5          6           0       -1.815611   -0.383496   -0.320584
      6          1           0       -2.023019   -1.426288   -0.010594
      7          1           0       -1.760061   -0.402573   -1.426557
      8          6           0       -0.471349    0.076441    0.260963
      9          1           0       -0.527607    0.099475    1.365940
     10          1           0       -0.264430    1.118762   -0.049378
     11          6           0        0.677974   -0.836942   -0.185212
     12          1           0        0.735967   -0.856035   -1.290531
     13          1           0        0.465048   -1.879272    0.122360
     14          6           0        2.031422   -0.405324    0.398270
     15          1           0        2.758500   -1.232818    0.276682
     16          1           0        1.937076   -0.247720    1.490590
     17          6           0        2.586391    0.856919   -0.258360
     18          1           0        1.908343    1.708373   -0.128550
     19          1           0        3.553485    1.136655    0.173103
     20          1           0        2.732142    0.719227   -1.335642
 ---------------------------------------------------------------------

 The electronic state is 1-A.
 Alpha  occ. eigenvalues --   -1.05608  -1.00007  -0.90946  -0.82318  -0.74682
 Alpha  occ. eigenvalues --   -0.72445  -0.59226  -0.56599  -0.54559  -0.51884
 Alpha  occ. eigenvalues --   -0.51559  -0.48745  -0.46900  -0.45623  -0.44065
 Alpha  occ. eigenvalues --   -0.42742  -0.41696  -0.40823  -0.40363
 Alpha virt. eigenvalues --    0.15266   0.15857   0.16864   0.17537   0.18485
 Alpha virt. eigenvalues --    0.20531   0.21136   0.21651   0.22086   0.22232
 Alpha virt. eigenvalues --    0.22768   0.22979   0.23595   0.24092   0.24463

 Mulliken atomic charges:
              1
     1  C   -0.463670
     2  H    0.146281
     3  H    0.146291
     4  H    0.143566
     5  C   -0.224032
     6  H    0.125287
     7  H    0.125760
     8  C   -0.259826
     9  H    0.130621
    10  H    0.133157
    11  C   -0.266594
    12  H    0.132724
    13  H    0.126955
    14  C   -0.220347
    15  H    0.122451
    16  H    0.126545
    17  C   -0.459665
    18  H    0.147260
    19  H    0.141571
    20  H    0.145665
 Sum of Mulliken atomic charges =   0.00000

 Dipole moment (field-independent basis, Debye):
    X=             -0.0069    Y=              0.0669    Z=             -0.0067  Tot=              0.0676
 N-N= 1.627601699142D+02 E-N=-2.465279376680D+02  KE=-5.608929843435D+01
 Leave Link  601 at Mon Sep 14 19:14:14 2015, MaxMem=  402653184 cpu:       0.0
 (Enter /share/apps/g09/l9999.exe)
 1\1\GINC-COMPUTE-0-12\FOpt\RPM6\ZDO\C6H14\HETANJIN\14-Sep-2015\0\\#p P
 M6 opt\\using PM6 to do opt and freq calc.\\0,1\C,0.0247217915,4.11511
 77202,-1.2269040968\H,-0.9025324145,4.63302024,-0.9568477349\H,0.00238
 09948,3.9479175518,-2.3097279854\H,0.8553147685,4.7980391859,-1.017148
 6484\C,0.1801930797,2.8041740088,-0.4589690576\H,1.1432122385,2.326983
 7857,-0.7261990454\H,0.2374544998,3.0123177572,0.6273197661\C,-0.97812
 30745,1.8378718088,-0.744178059\H,-1.0382311533,1.632696736,-1.8299772

 Normal termination of Gaussian 09 at Mon Sep 14 19:14:16 2015.
