 Gaussian 09, Revision A.01,
 Gaussian 09:  EM64L-G09RevA.01  8-May-2009

 -----------------------------------------
 #p B3LYP/6-31G(d) opt=tight int=ultrafine
 -----------------------------------------

 ---------------------------------------------
 using B3LYP/6-31G(d) to do opt and freq calc.
 ---------------------------------------------
 Symbolic Z-matrix:
 Charge =  0 Multiplicity = 1

 SCF Done:  E(RB3LYP) =  -237.081322091     A.U. after   11 cycles
 SCF Done:  E(RB3LYP) =  -237.082418557     A.U. after   13 cycles
 SCF Done:  E(RB3LYP) =  -237.082608773     A.U. after   13 cycles
 SCF Done:  E(RB3LYP) =  -237.082645036     A.U. after   12 cycles
 SCF Done:  E(RB3LYP) =  -237.082648359     A.U. after   12 cycles
 SCF Done:  E(RB3LYP) =  -237.082648920     A.U. after   12 cycles
 SCF Done:  E(RB3LYP) =  -237.082648933     A.U. after   12 cycles
 SCF Done:  E(RB3LYP) =  -237.082648934     A.U. after   12 cycles
 Optimization completed.
    -- Stationary point found.

                         Standard orientation:
 ---------------------------------------------------------------------
 Center     Atomic      Atomic             Coordinates (Angstroms)
 Number     Number       Type             X           Y           Z
 ---------------------------------------------------------------------
      1          6           0       -2.762933    0.485802    0.079043
      2          1           0       -2.410913    1.399495   -0.412672
      3          1           0       -2.825448    0.691596    1.155202
      4          1           0       -3.779759    0.291176   -0.281094
      5          6           0       -1.842393   -0.708552   -0.200221
      6          1           0       -2.287782   -1.609493    0.243098
      7          1           0       -1.801462   -0.892916   -1.283511
      8          6           0       -0.409874   -0.553682    0.339441
      9          1           0        0.108913   -1.514256    0.222875
     10          1           0       -0.451354   -0.359159    1.422236
     11          6           0        0.409874    0.553682   -0.339441
     12          1           0       -0.108913    1.514257   -0.222875
     13          1           0        0.451354    0.359160   -1.422236
     14          6           0        1.842393    0.708552    0.200221
     15          1           0        1.801462    0.892916    1.283511
     16          1           0        2.287782    1.609493   -0.243098
     17          6           0        2.762933   -0.485802   -0.079043
     18          1           0        2.825448   -0.691596   -1.155202
     19          1           0        3.779759   -0.291176    0.281094
     20          1           0        2.410913   -1.399495    0.412672
 ---------------------------------------------------------------------

 The electronic state is 1-A.
 Alpha  occ. eigenvalues --  -10.17621 -10.17621 -10.17334 -10.17313 -10.16936
 Alpha  occ. eigenvalues --  -10.16936  -0.79854  -0.75876  -0.69798  -0.64544
 Alpha  occ. eigenvalues --   -0.58539  -0.55416  -0.45873  -0.44445  -0.44200
 Alpha  occ. eigenvalues --   -0.40816  -0.40226  -0.38583  -0.36026  -0.34904
 Alpha  occ. eigenvalues --   -0.34248  -0.32911  -0.31598  -0.31025  -0.30210
 Alpha virt. eigenvalues --    0.08949   0.11046   0.11946   0.12865   0.15233
 Alpha virt. eigenvalues --    0.15961   0.16595   0.17145   0.18247   0.18310
 Alpha virt. eigenvalues --    0.18772   0.19139   0.21947   0.22600   0.23952

 Mulliken atomic charges:
              1
     1  C   -0.442977
     2  H    0.145986
     3  H    0.139993
     4  H    0.141181
     5  C   -0.248437
     6  H    0.129464
     7  H    0.129058
     8  C   -0.249457
     9  H    0.131100
    10  H    0.124089
    11  C   -0.249457
    12  H    0.131100
    13  H    0.124089
    14  C   -0.248437
    15  H    0.129058
    16  H    0.129464
    17  C   -0.442977
    18  H    0.139993
    19  H    0.141181
    20  H    0.145986
 Sum of Mulliken atomic charges =   0.00000

 Dipole moment (field-independent basis, Debye):
    X=              0.0000    Y=              0.0000    Z=              0.0000  Tot=              0.0000
 Quadrupole moment (field-independent basis, Debye-Ang):
   XX=            -41.8910   YY=            -41.5258   ZZ=            -41.1670
   XY=              0.3429   XZ=             -0.0302   YZ=             -0.0611

 Normal termination of Gaussian 09 at Fri Sep 18 13:32:24 2015.
