 Gaussian 09, Revision D.01,
 Gaussian 09:  ES64L-G09RevD.01 24-Apr-2013

 ----------------------------------------------
 #p B3LYP/6-31G(d) opt=tight int=ultrafine freq
 ----------------------------------------------

 ---------------------------------------------
 using B3LYP/6-31G(d) to do opt and freq calc.
 ---------------------------------------------
 Symbolic Z-matrix:
 Charge =  0 Multiplicity = 2

 SCF Done:  E(UB3LYP) =  -236.408487216     A.U. after   13 cycles
 SCF Done:  E(UB3LYP) =  -236.416485794     A.U. after   12 cycles
 SCF Done:  E(UB3LYP) =  -236.418741405     A.U. after   13 cycles
 SCF Done:  E(UB3LYP) =  -236.418955678     A.U. after   11 cycles
 SCF Done:  E(UB3LYP) =  -236.418982035     A.U. after    9 cycles
 SCF Done:  E(UB3LYP) =  -236.418985603     A.U. after    9 cycles
 SCF Done:  E(UB3LYP) =  -236.418985949     A.U. after    7 cycles
 SCF Done:  E(UB3LYP) =  -236.418986033     A.U. after    7 cycles
 SCF Done:  E(UB3LYP) =  -236.418986065     A.U. after    7 cycles
 SCF Done:  E(UB3LYP) =  -236.418986080     A.U. after    7 cycles
 SCF Done:  E(UB3LYP) =  -236.418986080     A.U. after    5 cycles
 SCF Done:  E(UB3LYP) =  -236.418986080     A.U. after    4 cycles
 SCF Done:  E(UB3LYP) =  -236.418986080     A.U. after    4 cycles
 SCF Done:  E(UB3LYP) =  -236.418986080     A.U. after    4 cycles
 Optimization completed.
    -- Stationary point found.
 Normal termination of Gaussian 09 at Sat Nov  7 02:06:22 2015.

 --------------------------------------------------------------------
 #P Geom=AllCheck Guess=TCheck SCRF=Check GenChk UB3LYP/6-31G(d) Freq
 --------------------------------------------------------------------

 Structure from the checkpoint file:  "/state/partition1/Gau-13666.chk"
 ---------------------------------------------
 using B3LYP/6-31G(d) to do opt and freq calc.
 ---------------------------------------------
 Charge =  0 Multiplicity = 2

                         Standard orientation:
 ---------------------------------------------------------------------
 Center     Atomic      Atomic             Coordinates (Angstroms)
 Number     Number       Type             X           Y           Z
 ---------------------------------------------------------------------
      1          6           0       -3.172713    0.349723   -0.173119
      2          1           0       -3.053589    1.000756   -1.046579
      3          1           0       -3.325238    0.992898    0.702075
      4          1           0       -4.083066   -0.243716   -0.313568
      5          6           0       -1.943332   -0.550078    0.014292
      6          1           0       -2.133800   -1.236103    0.863114
      7          1           0       -1.830040   -1.211174   -0.859044
      8          6           0       -0.673240    0.207210    0.237373
      9          1           0       -0.733960    1.166321    0.752919
     10          6           0        0.670473   -0.435589    0.108880
     11          1           0        0.673748   -1.119795   -0.754982
     12          1           0        0.871278   -1.086577    0.983845
     13          6           0        1.829976    0.565362   -0.024908
     14          1           0        1.818560    1.243172    0.840254
     15          1           0        1.658780    1.195199   -0.908055
     16          6           0        3.200510   -0.109878   -0.128263
     17          1           0        3.253267   -0.768854   -1.003819
     18          1           0        4.004586    0.629187   -0.219790
     19          1           0        3.409421   -0.721808    0.758099
 ---------------------------------------------------------------------

 SCF Done:  E(UB3LYP) =  -236.418986080     A.U. after    1 cycles

 The electronic state is 2-A.
 Alpha  occ. eigenvalues --  -10.18096 -10.18016 -10.17858 -10.17757 -10.17148
 Alpha  occ. eigenvalues --  -10.17082  -0.80058  -0.76416  -0.70430  -0.63517
 Alpha  occ. eigenvalues --   -0.58185  -0.56080  -0.46343  -0.44085  -0.43387
 Alpha  occ. eigenvalues --   -0.41954  -0.38917  -0.38105  -0.37340  -0.34717
 Alpha  occ. eigenvalues --   -0.34157  -0.32964  -0.32538  -0.31557  -0.17737
 Alpha virt. eigenvalues --    0.09943   0.10900   0.12420   0.13873   0.14820
 Alpha virt. eigenvalues --    0.16002   0.16599   0.17095   0.17789   0.18908
 Alpha virt. eigenvalues --    0.19289   0.19830   0.20489   0.23081   0.25461

  Beta  occ. eigenvalues --  -10.18183 -10.17948 -10.17729 -10.17123 -10.17081
  Beta  occ. eigenvalues --  -10.16653  -0.79133  -0.76133  -0.69810  -0.63017
  Beta  occ. eigenvalues --   -0.58028  -0.54482  -0.45737  -0.43789  -0.42949
  Beta  occ. eigenvalues --   -0.41616  -0.38430  -0.37706  -0.37120  -0.34247
  Beta  occ. eigenvalues --   -0.33931  -0.32643  -0.32329  -0.31232
  Beta virt. eigenvalues --   -0.02805   0.10056   0.11018   0.12709   0.14074
  Beta virt. eigenvalues --    0.15012   0.16220   0.16756   0.17295   0.18096
  Beta virt. eigenvalues --    0.19049   0.19364   0.20074   0.21004   0.23754

 Mulliken charges and spin densities:
               1          2
     1  C   -0.442808   0.009059
     2  H    0.147636   0.001840
     3  H    0.142681  -0.000844
     4  H    0.140306   0.000658
     5  C   -0.277448  -0.078104
     6  H    0.137877   0.060718
     7  H    0.136437   0.019787
     8  C   -0.093679   1.023560
     9  H    0.116830  -0.048181
    10  C   -0.274750  -0.079063
    11  H    0.132453   0.018242
    12  H    0.134053   0.059743
    13  C   -0.249669   0.010737
    14  H    0.131489  -0.000960
    15  H    0.136884   0.001448
    16  C   -0.442969   0.001582
    17  H    0.141484   0.000062
    18  H    0.142126  -0.000246
    19  H    0.141067  -0.000038
 Sum of Mulliken charges =   0.00000   1.00000

 Dipole moment (field-independent basis, Debye):
    X=              0.0176    Y=             -0.1405    Z=              0.1167  Tot=              0.1835
 Quadrupole moment (field-independent basis, Debye-Ang):
   XX=            -40.8852   YY=            -40.5545   ZZ=            -40.4399
   XY=              0.4553   XZ=             -0.0868   YZ=              0.4114

  Exact polarizability:  79.576   0.208  59.692   0.106   1.251  54.737
 Approx polarizability:  85.714   0.617  83.580   0.153   2.247  78.688

                      1                      2                      3
                      A                      A                      A
 Frequencies --     44.1294                48.7442               108.4368
 Red. masses --      2.2328                 1.7995                 2.3796
 Frc consts  --      0.0026                 0.0025                 0.0165
 IR Inten    --      0.0029                 0.0443                 0.0184

                      4                      5                      6
                      A                      A                      A
 Frequencies --    159.3571               241.2325               246.4436
 Red. masses --      2.1222                 1.0822                 1.1023
 Frc consts  --      0.0318                 0.0371                 0.0394
 IR Inten    --      0.1882                 0.0789                 0.1096

                      7                      8                      9
                      A                      A                      A
 Frequencies --    294.9484               372.5133               424.4248
 Red. masses --      2.5702                 3.3201                 1.3208
 Frc consts  --      0.1317                 0.2714                 0.1402
 IR Inten    --      0.2759                 0.1579                15.2659

                     10                     11                     12
                      A                      A                      A
 Frequencies --    465.6268               741.3754               779.5033
 Red. masses --      2.6226                 1.1048                 1.1730
 Frc consts  --      0.3350                 0.3578                 0.4199
 IR Inten    --      0.2355                 1.6284                 2.5883

                     13                     14                     15
                      A                      A                      A
 Frequencies --    867.3891               901.2360               917.6148
 Red. masses --      1.2971                 2.1332                 1.6236
 Frc consts  --      0.5750                 1.0209                 0.8055
 IR Inten    --      1.0802                 1.9772                 0.5462

                     16                     17                     18
                      A                      A                      A
 Frequencies --   1026.0786              1048.3224              1060.4280
 Red. masses --      3.4366                 1.2133                 2.4249
 Frc consts  --      2.1318                 0.7856                 1.6066
 IR Inten    --      0.1784                 1.7113                 0.0709

                     19                     20                     21
                      A                      A                      A
 Frequencies --   1081.3264              1112.9624              1147.4329
 Red. masses --      1.6984                 1.5884                 1.9909
 Frc consts  --      1.1700                 1.1593                 1.5444
 IR Inten    --      3.0229                 0.2039                 0.4887

                     22                     23                     24
                      A                      A                      A
 Frequencies --   1180.2228              1262.1212              1278.4698
 Red. masses --      2.3543                 1.3723                 1.2825
 Frc consts  --      1.9322                 1.2879                 1.2351
 IR Inten    --      0.2203                 0.0533                12.8330

                     25                     26                     27
                      A                      A                      A
 Frequencies --   1288.6004              1334.3459              1354.4046
 Red. masses --      1.1915                 1.0938                 1.3579
 Frc consts  --      1.1657                 1.1474                 1.4676
 IR Inten    --      1.8480                 0.2375                 0.3316

                     28                     29                     30
                      A                      A                      A
 Frequencies --   1406.9424              1436.6211              1439.5565
 Red. masses --      1.4868                 1.3913                 1.2973
 Frc consts  --      1.7340                 1.6918                 1.5839
 IR Inten    --      2.2365                 0.4263                 2.1746

                     31                     32                     33
                      A                      A                      A
 Frequencies --   1444.6509              1496.1451              1507.1156
 Red. masses --      1.5475                 1.0735                 1.0708
 Frc consts  --      1.9028                 1.4158                 1.4330
 IR Inten    --      0.0655                 0.0019                 1.2188

                     34                     35                     36
                      A                      A                      A
 Frequencies --   1521.9087              1527.8911              1529.1627
 Red. masses --      1.0578                 1.0411                 1.0413
 Frc consts  --      1.4436                 1.4319                 1.4346
 IR Inten    --      0.6054                 5.5051                 5.7363

                     37                     38                     39
                      A                      A                      A
 Frequencies --   1535.2786              1538.5953              2915.7763
 Red. masses --      1.0558                 1.0770                 1.0726
 Frc consts  --      1.4663                 1.5021                 5.3728
 IR Inten    --      2.9170                 2.8253                26.1783

                     40                     41                     42
                      A                      A                      A
 Frequencies --   2927.3471              3006.3460              3016.7289
 Red. masses --      1.0738                 1.0832                 1.0830
 Frc consts  --      5.4216                 5.7679                 5.8069
 IR Inten    --     61.3592                 7.5328                36.8155

                     43                     44                     45
                      A                      A                      A
 Frequencies --   3031.7875              3040.5948              3045.9992
 Red. masses --      1.0610                 1.0359                 1.0353
 Frc consts  --      5.7460                 5.6424                 5.6597
 IR Inten    --     32.3312                38.2712                31.3319

                     46                     47                     48
                      A                      A                      A
 Frequencies --   3064.8188              3105.1917              3110.2777
 Red. masses --      1.1026                 1.1029                 1.1020
 Frc consts  --      6.1020                 6.2658                 6.2812
 IR Inten    --     19.9818                58.2729                43.7989

                     49                     50                     51
                      A                      A                      A
 Frequencies --   3110.9963              3117.2708              3147.0818
 Red. masses --      1.1017                 1.1030                 1.0863
 Frc consts  --      6.2822                 6.3150                 6.3389
 IR Inten    --     39.8707                36.3107                31.8170

 - Thermochemistry -
 -------------------
 Temperature   298.150 Kelvin.  Pressure   1.00000 Atm.
 Atom     1 has atomic number  6 and mass  12.00000

 Molecular mass:    85.10173 amu.
 Principal axes and moments of inertia in atomic units:
                           1         2         3
     Eigenvalues --   125.616861577.158751632.23831
           X            1.00000  -0.00310   0.00022
           Y            0.00309   0.99966   0.02573
           Z           -0.00030  -0.02573   0.99967
 This molecule is an asymmetric top.
 Rotational symmetry number  1.
 Rotational temperatures (Kelvin)      0.68951     0.05492     0.05306
 Rotational constants (GHZ):          14.36703     1.14430     1.10568
 Zero-point vibrational energy     459436.4 (Joules/Mol)
                                  109.80794 (Kcal/Mol)
 Warning -- explicit consideration of  10 degrees of freedom as
           vibrations may cause significant error
 Vibrational temperatures:     63.49    70.13   156.02   229.28   347.08
          (Kelvin)            354.58   424.36   535.96   610.65   669.93
                             1066.67  1121.53  1247.98  1296.68  1320.24
                             1476.30  1508.30  1525.72  1555.79  1601.30
                             1650.90  1698.08  1815.91  1839.43  1854.01
                             1919.82  1948.68  2024.27  2066.97  2071.20
                             2078.53  2152.62  2168.40  2189.68  2198.29
                             2200.12  2208.92  2213.69  4195.15  4211.79
                             4325.46  4340.39  4362.06  4374.73  4382.51
                             4409.59  4467.67  4474.99  4476.02  4485.05
                             4527.94

 Zero-point correction=                           0.174990 (Hartree/Particle)
 Thermal correction to Energy=                    0.183787
 Thermal correction to Enthalpy=                  0.184731
 Thermal correction to Gibbs Free Energy=         0.140540
 Sum of electronic and zero-point Energies=           -236.243996
 Sum of electronic and thermal Energies=              -236.235199
 Sum of electronic and thermal Enthalpies=            -236.234255
 Sum of electronic and thermal Free Energies=         -236.278447

                     E (Thermal)             CV                S
                      KCal/Mol        Cal/Mol-Kelvin    Cal/Mol-Kelvin
 Total                  115.328             29.834             93.009
 Electronic               0.000              0.000              1.377
 Translational            0.889              2.981             39.237
 Rotational               0.889              2.981             27.272
 Vibrational            113.551             23.873             25.122
 Vibration     1          0.595              1.980              5.065
 Vibration     2          0.595              1.978              4.868
 Vibration     3          0.606              1.942              3.297
 Vibration     4          0.621              1.892              2.557
 Vibration     5          0.658              1.777              1.794
 Vibration     6          0.661              1.769              1.756
 Vibration     7          0.689              1.683              1.445
 Vibration     8          0.744              1.529              1.069
 Vibration     9          0.786              1.417              0.877
 Vibration    10          0.823              1.326              0.750

 Optimization completed.
    -- Stationary point found.
 Normal termination of Gaussian 09 at Sat Nov  7 02:12:24 2015.
