 Gaussian 09, Revision D.01,
 Gaussian 09:  ES64L-G09RevD.01 24-Apr-2013

 ----------------------------------------------
 #p B3LYP/6-31G(d) opt=tight int=ultrafine freq
 ----------------------------------------------

 ---------------------------------------------
 using B3LYP/6-31G(d) to do opt and freq calc.
 ---------------------------------------------
 Symbolic Z-matrix:
 Charge =  0 Multiplicity = 2

 SCF Done:  E(UB3LYP) =  -236.401475987     A.U. after   14 cycles
 SCF Done:  E(UB3LYP) =  -236.410142019     A.U. after   13 cycles
 SCF Done:  E(UB3LYP) =  -236.412417223     A.U. after   14 cycles
 SCF Done:  E(UB3LYP) =  -236.412659397     A.U. after   11 cycles
 SCF Done:  E(UB3LYP) =  -236.412684109     A.U. after    8 cycles
 SCF Done:  E(UB3LYP) =  -236.412692770     A.U. after    9 cycles
 SCF Done:  E(UB3LYP) =  -236.412692949     A.U. after    7 cycles
 SCF Done:  E(UB3LYP) =  -236.412692984     A.U. after    6 cycles
 SCF Done:  E(UB3LYP) =  -236.412692984     A.U. after    5 cycles
 Optimization completed.
    -- Stationary point found.
 Normal termination of Gaussian 09 at Sat Nov  7 02:20:15 2015.

 --------------------------------------------------------------------
 #P Geom=AllCheck Guess=TCheck SCRF=Check GenChk UB3LYP/6-31G(d) Freq
 --------------------------------------------------------------------

 Structure from the checkpoint file:  "/state/partition1/Gau-4496.chk"
 ---------------------------------------------
 using B3LYP/6-31G(d) to do opt and freq calc.
 ---------------------------------------------
 Charge =  0 Multiplicity = 2

                         Standard orientation:
 ---------------------------------------------------------------------
 Center     Atomic      Atomic             Coordinates (Angstroms)
 Number     Number       Type             X           Y           Z
 ---------------------------------------------------------------------
      1          6           0       -1.597665   -0.000005    0.950895
      2          1           0       -1.590235    0.886343    1.597586
      3          1           0       -1.590233   -0.886358    1.597579
      4          1           0       -2.544019   -0.000004    0.395927
      5          6           0       -0.395433    0.000000   -0.010346
      6          6           0        0.917710   -0.000002    0.850122
      7          1           0        0.876711   -0.881908    1.506177
      8          1           0        0.876711    0.881900    1.506182
      9          6           0        2.203159    0.000000    0.094503
     10          1           0        2.667496    0.926371   -0.228947
     11          1           0        2.667497   -0.926370   -0.228951
     12          6           0       -0.446349   -1.258782   -0.894254
     13          1           0        0.393766   -1.285742   -1.597385
     14          1           0       -0.406680   -2.171909   -0.286708
     15          1           0       -1.374256   -1.288070   -1.478728
     16          6           0       -0.446352    1.258790   -0.894244
     17          1           0       -1.374259    1.288081   -1.478717
     18          1           0       -0.406684    2.171912   -0.286690
     19          1           0        0.393763    1.285756   -1.597375
 ---------------------------------------------------------------------

 SCF Done:  E(UB3LYP) =  -236.412692984     A.U. after    1 cycles

 The electronic state is 2-A.
 Alpha  occ. eigenvalues --  -10.19534 -10.18484 -10.17966 -10.16881 -10.16731
 Alpha  occ. eigenvalues --  -10.16730  -0.81886  -0.73063  -0.67893  -0.67805
 Alpha  occ. eigenvalues --   -0.60968  -0.52336  -0.45909  -0.44687  -0.43460
 Alpha  occ. eigenvalues --   -0.42372  -0.39562  -0.37750  -0.36332  -0.35912
 Alpha  occ. eigenvalues --   -0.34709  -0.32551  -0.31619  -0.31496  -0.19603
 Alpha virt. eigenvalues --    0.08144   0.12719   0.12851   0.13890   0.14618
 Alpha virt. eigenvalues --    0.15395   0.16351   0.17260   0.18611   0.20045
 Alpha virt. eigenvalues --    0.20667   0.22532   0.22794   0.23942   0.24594

  Beta  occ. eigenvalues --  -10.19376 -10.18064 -10.17120 -10.16881 -10.16727
  Beta  occ. eigenvalues --  -10.16726  -0.81523  -0.71496  -0.67857  -0.67774
  Beta  occ. eigenvalues --   -0.58913  -0.51961  -0.45550  -0.44306  -0.43238
  Beta  occ. eigenvalues --   -0.42060  -0.39319  -0.37608  -0.36007  -0.35896
  Beta  occ. eigenvalues --   -0.34482  -0.31619  -0.31390  -0.31389
  Beta virt. eigenvalues --   -0.04172   0.08441   0.12940   0.13710   0.14034
  Beta virt. eigenvalues --    0.14780   0.15504   0.16425   0.17317   0.19007
  Beta virt. eigenvalues --    0.20270   0.20812   0.22731   0.22794   0.24138

 Mulliken charges and spin densities:
               1          2
     1  C   -0.440303   0.002093
     2  H    0.136960   0.000402
     3  H    0.136960   0.000402
     4  H    0.138359   0.001654
     5  C    0.104826   0.064384
     6  C   -0.260877  -0.082058
     7  H    0.132551   0.015367
     8  H    0.132551   0.015367
     9  C   -0.313858   1.075090
    10  H    0.143204  -0.050995
    11  H    0.143204  -0.050995
    12  C   -0.441335   0.002939
    13  H    0.143261   0.001587
    14  H    0.134410   0.000759
    15  H    0.136876  -0.000642
    16  C   -0.441335   0.002939
    17  H    0.136876  -0.000642
    18  H    0.134410   0.000759
    19  H    0.143261   0.001587
 Sum of Mulliken charges =   0.00000   1.00000

 Dipole moment (field-independent basis, Debye):
    X=             -0.1460    Y=              0.0000    Z=             -0.0154  Tot=              0.1468
 Quadrupole moment (field-independent basis, Debye-Ang):
   XX=            -41.4107   YY=            -40.2998   ZZ=            -41.3168
   XY=              0.0000   XZ=             -0.4621   YZ=              0.0000

  Exact polarizability:  68.168   0.000  61.865  -2.138   0.000  58.417
 Approx polarizability:  87.650   0.000  84.757  -2.439   0.000  79.934

                      1                      2                      3
                      A                      A                      A
 Frequencies --    113.7159               132.7203               230.6783
 Red. masses --      1.6099                 1.1467                 1.0524
 Frc consts  --      0.0123                 0.0119                 0.0330
 IR Inten    --      0.0091                 0.1107                 0.0263

                      4                      5                      6
                      A                      A                      A
 Frequencies --    242.8085               275.1202               275.5927
 Red. masses --      2.5363                 1.0343                 1.0401
 Frc consts  --      0.0881                 0.0461                 0.0465
 IR Inten    --      0.0596                 0.6518                 0.0189

                      7                      8                      9
                      A                      A                      A
 Frequencies --    323.6641               346.7739               405.0147
 Red. masses --      2.1076                 2.2235                 2.2259
 Frc consts  --      0.1301                 0.1575                 0.2151
 IR Inten    --      0.0260                 0.6752                 0.2283

                     10                     11                     12
                      A                      A                      A
 Frequencies --    409.6226               438.5111               544.3137
 Red. masses --      2.0846                 1.5268                 2.4063
 Frc consts  --      0.2061                 0.1730                 0.4200
 IR Inten    --      0.0193                28.7962                23.0073

                     13                     14                     15
                      A                      A                      A
 Frequencies --    728.7174               787.4399               885.2090
 Red. masses --      3.7050                 1.1496                 2.3942
 Frc consts  --      1.1592                 0.4200                 1.1053
 IR Inten    --      1.6283                 0.9915                 1.4251

                     16                     17                     18
                      A                      A                      A
 Frequencies --    943.9615               943.9841               971.1280
 Red. masses --      1.6739                 1.8075                 1.2021
 Frc consts  --      0.8788                 0.9490                 0.6679
 IR Inten    --      0.4392                 0.3068                 0.0044

                     19                     20                     21
                      A                      A                      A
 Frequencies --   1000.6007              1046.7779              1086.4968
 Red. masses --      1.2872                 1.6008                 2.5050
 Frc consts  --      0.7593                 1.0335                 1.7423
 IR Inten    --      0.0029                 0.0774                 0.1159

                     22                     23                     24
                      A                      A                      A
 Frequencies --   1107.1704              1232.0366              1248.2884
 Red. masses --      1.4317                 2.0227                 1.8559
 Frc consts  --      1.0340                 1.8090                 1.7039
 IR Inten    --      0.0049                 3.7498                 5.0041

                     25                     26                     27
                      A                      A                      A
 Frequencies --   1258.4385              1341.2083              1343.6029
 Red. masses --      2.4553                 1.3980                 1.4911
 Frc consts  --      2.2910                 1.4817                 1.5860
 IR Inten    --     14.7352                 0.2743                 0.3445

                     28                     29                     30
                      A                      A                      A
 Frequencies --   1426.2992              1426.3771              1454.9775
 Red. masses --      1.2537                 1.2438                 1.2284
 Frc consts  --      1.5027                 1.4909                 1.5321
 IR Inten    --      6.5170                 5.1212                 2.1212

                     31                     32                     33
                      A                      A                      A
 Frequencies --   1490.3551              1509.8540              1511.1003
 Red. masses --      1.1227                 1.1322                 1.0488
 Frc consts  --      1.4692                 1.5207                 1.4110
 IR Inten    --      0.5661                 0.2435                 0.0651

                     34                     35                     36
                      A                      A                      A
 Frequencies --   1518.4687              1518.8349              1536.1532
 Red. masses --      1.0601                 1.0449                 1.0576
 Frc consts  --      1.4402                 1.4202                 1.4704
 IR Inten    --      0.1480                 0.0706                 4.3710

                     37                     38                     39
                      A                      A                      A
 Frequencies --   1536.9841              1547.2469              3008.9284
 Red. masses --      1.0584                 1.0549                 1.0573
 Frc consts  --      1.4731                 1.4879                 5.6401
 IR Inten    --      6.1237                 8.6045                32.0651

                     40                     41                     42
                      A                      A                      A
 Frequencies --   3032.7199              3034.7125              3042.7991
 Red. masses --      1.0348                 1.0351                 1.0367
 Frc consts  --      5.6074                 5.6167                 5.6554
 IR Inten    --     31.5469                37.6367                11.0187

                     43                     44                     45
                      A                      A                      A
 Frequencies --   3049.7366              3096.9801              3097.6508
 Red. masses --      1.1040                 1.1026                 1.1022
 Frc consts  --      6.0496                 6.2308                 6.2311
 IR Inten    --     25.3270                 0.6483                 1.3690

                     46                     47                     48
                      A                      A                      A
 Frequencies --   3102.0128              3104.6008              3109.3642
 Red. masses --      1.1020                 1.1011                 1.1019
 Frc consts  --      6.2476                 6.2530                 6.2767
 IR Inten    --     52.5687                83.4606                 8.1097

                     49                     50                     51
                      A                      A                      A
 Frequencies --   3113.7994              3166.3461              3261.4843
 Red. masses --      1.1010                 1.0512                 1.1183
 Frc consts  --      6.2896                 6.2094                 7.0088
 IR Inten    --     56.7692                16.0032                17.1505

 - Thermochemistry -
 -------------------
 Temperature   298.150 Kelvin.  Pressure   1.00000 Atm.
 Atom     1 has atomic number  6 and mass  12.00000

 Molecular mass:    85.10173 amu.
 Principal axes and moments of inertia in atomic units:
                           1         2         3
     Eigenvalues --   419.88176 700.28473 702.46436
           X            0.99979   0.00000  -0.02031
           Y            0.00000   1.00000   0.00000
           Z            0.02031   0.00000   0.99979
 This molecule is an asymmetric top.
 Rotational symmetry number  1.
 Rotational temperatures (Kelvin)      0.20628     0.12368     0.12330
 Rotational constants (GHZ):           4.29821     2.57715     2.56916
 Zero-point vibrational energy     456742.5 (Joules/Mol)
                                  109.16408 (Kcal/Mol)
 Warning -- explicit consideration of  12 degrees of freedom as
           vibrations may cause significant error
 Vibrational temperatures:    163.61   190.95   331.89   349.35   395.84
          (Kelvin)            396.52   465.68   498.93   582.73   589.35
                              630.92   783.15  1048.46  1132.95  1273.62
                             1358.15  1358.18  1397.23  1439.64  1506.08
                             1563.22  1592.97  1772.62  1796.01  1810.61
                             1929.70  1933.14  2052.12  2052.24  2093.39
                             2144.29  2172.34  2174.13  2184.73  2185.26
                             2210.18  2211.37  2226.14  4329.17  4363.40
                             4366.27  4377.90  4387.89  4455.86  4456.82
                             4463.10  4466.82  4473.68  4480.06  4555.66
                             4692.54

 Zero-point correction=                           0.173964 (Hartree/Particle)
 Thermal correction to Energy=                    0.182529
 Thermal correction to Enthalpy=                  0.183473
 Thermal correction to Gibbs Free Energy=         0.141841
 Sum of electronic and zero-point Energies=           -236.238729
 Sum of electronic and thermal Energies=              -236.230164
 Sum of electronic and thermal Enthalpies=            -236.229220
 Sum of electronic and thermal Free Energies=         -236.270852

                     E (Thermal)             CV                S
                      KCal/Mol        Cal/Mol-Kelvin    Cal/Mol-Kelvin
 Total                  114.539             31.645             87.622
 Electronic               0.000              0.000              1.377
 Translational            0.889              2.981             39.237
 Rotational               0.889              2.981             26.826
 Vibrational            112.761             25.683             20.181
 Vibration     1          0.607              1.938              3.204
 Vibration     2          0.613              1.921              2.906
 Vibration     3          0.652              1.794              1.874
 Vibration     4          0.659              1.775              1.782
 Vibration     5          0.677              1.719              1.564
 Vibration     6          0.677              1.719              1.561
 Vibration     7          0.708              1.628              1.292
 Vibration     8          0.725              1.582              1.181
 Vibration     9          0.770              1.459              0.944
 Vibration    10          0.774              1.449              0.928
 Vibration    11          0.799              1.386              0.831
 Vibration    12          0.899              1.152              0.556

 Optimization completed.
    -- Stationary point found.
 Normal termination of Gaussian 09 at Sat Nov  7 02:28:14 2015.
