 Gaussian 09, Revision A.01,
 Gaussian 09:  EM64L-G09RevA.01  8-May-2009

 ----------
 #p PM6 opt
 ----------

 ----------------------------------
 using PM6 to do opt and freq calc.
 ----------------------------------
 Symbolic Z-matrix:
 Charge =  0 Multiplicity = 1

 SCF Done:  E(RPM6) = -0.534464270227E-01 A.U. after   13 cycles
 SCF Done:  E(RPM6) = -0.563788003995E-01 A.U. after   12 cycles
 SCF Done:  E(RPM6) = -0.567750981414E-01 A.U. after   12 cycles
 SCF Done:  E(RPM6) = -0.569304173631E-01 A.U. after   11 cycles
 SCF Done:  E(RPM6) = -0.570319326537E-01 A.U. after   11 cycles
 SCF Done:  E(RPM6) = -0.570574070484E-01 A.U. after    9 cycles
 SCF Done:  E(RPM6) = -0.570739629850E-01 A.U. after   10 cycles
 SCF Done:  E(RPM6) = -0.570759595844E-01 A.U. after    9 cycles
 SCF Done:  E(RPM6) = -0.570765757649E-01 A.U. after    8 cycles
 SCF Done:  E(RPM6) = -0.570766354756E-01 A.U. after    8 cycles
 Optimization completed.
    -- Stationary point found.

                         Standard orientation:
 ---------------------------------------------------------------------
 Center     Atomic      Atomic             Coordinates (Angstroms)
 Number     Number       Type             X           Y           Z
 ---------------------------------------------------------------------
      1          6           0       -2.183800   -0.940457   -0.200870
      2          1           0       -2.040203   -1.300711   -1.225716
      3          1           0       -2.799204   -0.035067   -0.255500
      4          1           0       -2.763044   -1.699053    0.336829
      5          6           0       -0.850232   -0.672361    0.492650
      6          1           0       -1.027109   -0.350478    1.536421
      7          1           0       -0.277923   -1.619102    0.564081
      8          6           0        0.000664    0.384269   -0.244308
      9          1           0        0.000463    0.141753   -1.335300
     10          6           0        1.460995    0.360190    0.260506
     11          1           0        1.477750    0.410936    1.365780
     12          1           0        1.984679    1.272458   -0.086672
     13          6           0        2.226753   -0.871700   -0.216144
     14          1           0        2.286266   -0.911062   -1.309705
     15          1           0        3.251937   -0.874177    0.169868
     16          1           0        1.746740   -1.799560    0.117780
     17          6           0       -0.588452    1.789806   -0.062767
     18          1           0       -1.629746    1.827653   -0.401500
     19          1           0       -0.576210    2.102287    0.986566
     20          1           0       -0.029966    2.535640   -0.637333
 ---------------------------------------------------------------------

 The electronic state is 1-A.
 Alpha  occ. eigenvalues --   -1.06457  -0.97259  -0.92666  -0.81882  -0.77286
 Alpha  occ. eigenvalues --   -0.70619  -0.57573  -0.56068  -0.54988  -0.52007
 Alpha  occ. eigenvalues --   -0.51220  -0.48232  -0.46714  -0.46610  -0.44371
 Alpha  occ. eigenvalues --   -0.43812  -0.40857  -0.40693  -0.40161
 Alpha virt. eigenvalues --    0.15323   0.15763   0.16978   0.18051   0.18168
 Alpha virt. eigenvalues --    0.21099   0.21325   0.21985   0.22070   0.22299
 Alpha virt. eigenvalues --    0.22532   0.22983   0.23369   0.23751   0.24733

 Mulliken atomic charges:
              1
     1  C   -0.457154
     2  H    0.144543
     3  H    0.145517
     4  H    0.141568
     5  C   -0.256027
     6  H    0.129673
     7  H    0.130273
     8  C   -0.018359
     9  H    0.117137
    10  C   -0.263458
    11  H    0.130542
    12  H    0.130479
    13  C   -0.457610
    14  H    0.145408
    15  H    0.142406
    16  H    0.146104
    17  C   -0.496435
    18  H    0.150409
    19  H    0.149120
    20  H    0.145865
 Sum of Mulliken atomic charges =   0.00000

 Dipole moment (field-independent basis, Debye):
    X=             -0.0208    Y=              0.0020    Z=              0.0007  Tot=              0.0209
 N-N= 1.674985877945D+02 E-N=-2.558719365396D+02  KE=-5.624988930646D+01
 Leave Link  601 at Mon Sep 14 19:14:57 2015, MaxMem=  402653184 cpu:       0.0
 (Enter /share/apps/g09/l9999.exe)
 1\1\GINC-COMPUTE-0-7\FOpt\RPM6\ZDO\C6H14\HETANJIN\14-Sep-2015\0\\#p PM
 6 opt\\using PM6 to do opt and freq calc.\\0,1\C,-2.6109648195,-0.1714
 200202,-0.2921172314\H,-2.5303210963,-0.6898484876,-1.2541154054\H,-2.
 7036482889,0.8999041713,-0.5045150431\H,-3.5456964753,-0.4946773191,0.
 1789388867\C,-1.4117935014,-0.4643684305,0.606446613\H,-1.5421331509,0
 .0384586135,1.5834464101\H,-1.3784898166,-1.5496225529,0.830219501\C,-
 0.0730686116,-0.0330075414,-0.0302172765\H,-0.0524093427,-0.3903311121

 Normal termination of Gaussian 09 at Mon Sep 14 19:15:02 2015.
