 Gaussian 09, Revision A.01,
 Gaussian 09:  EM64L-G09RevA.01  8-May-2009

 ----------
 #p PM6 opt
 ----------

 ----------------------------------
 using PM6 to do opt and freq calc.
 ----------------------------------
 Symbolic Z-matrix:
 Charge =  0 Multiplicity = 1

 SCF Done:  E(RPM6) = -0.536126882682E-01 A.U. after   13 cycles
 SCF Done:  E(RPM6) = -0.563237926735E-01 A.U. after   12 cycles
 SCF Done:  E(RPM6) = -0.565913979065E-01 A.U. after   12 cycles
 SCF Done:  E(RPM6) = -0.566714994872E-01 A.U. after   11 cycles
 SCF Done:  E(RPM6) = -0.567024818316E-01 A.U. after   11 cycles
 SCF Done:  E(RPM6) = -0.567159077143E-01 A.U. after   10 cycles
 SCF Done:  E(RPM6) = -0.567210575657E-01 A.U. after   10 cycles
 SCF Done:  E(RPM6) = -0.567224879988E-01 A.U. after   10 cycles
 SCF Done:  E(RPM6) = -0.567225352564E-01 A.U. after    8 cycles
 Optimization completed.
    -- Stationary point found.

                         Standard orientation:
 ---------------------------------------------------------------------
 Center     Atomic      Atomic             Coordinates (Angstroms)
 Number     Number       Type             X           Y           Z
 ---------------------------------------------------------------------
      1          6           0       -2.531559   -0.223926   -0.368539
      2          1           0       -2.465624   -0.441027   -1.440606
      3          1           0       -2.721151    0.850625   -0.263311
      4          1           0       -3.408883   -0.751695    0.021333
      5          6           0       -1.262996   -0.645170    0.369354
      6          1           0       -1.373849   -0.442825    1.451735
      7          1           0       -1.138394   -1.742289    0.279970
      8          6           0       -0.000023    0.064384   -0.168961
      9          1           0       -0.000107   -0.014618   -1.283874
     10          6           0        1.262950   -0.645285    0.369255
     11          1           0        1.138340   -1.742380    0.279689
     12          1           0        1.373761   -0.443152    1.451689
     13          6           0        2.531573   -0.223909   -0.368493
     14          1           0        2.722736    0.850094   -0.260618
     15          1           0        3.408441   -0.753930    0.019351
     16          1           0        2.464588   -0.438151   -1.441075
     17          6           0        0.000050    1.550081    0.211012
     18          1           0       -0.883474    2.060898   -0.186430
     19          1           0        0.000059    1.690567    1.296853
     20          1           0        0.883581    2.060832   -0.186479
 ---------------------------------------------------------------------

 The electronic state is 1-A.
 Alpha  occ. eigenvalues --   -1.06408  -0.97888  -0.91120  -0.84287  -0.75443
 Alpha  occ. eigenvalues --   -0.70781  -0.58111  -0.56972  -0.53838  -0.52592
 Alpha  occ. eigenvalues --   -0.49814  -0.48733  -0.47275  -0.45863  -0.45630
 Alpha  occ. eigenvalues --   -0.42574  -0.40991  -0.40679  -0.40508
 Alpha virt. eigenvalues --    0.15293   0.15706   0.16907   0.17811   0.18452
 Alpha virt. eigenvalues --    0.21201   0.21226   0.22022   0.22078   0.22335
 Alpha virt. eigenvalues --    0.22723   0.23158   0.23164   0.23674   0.24618

 Mulliken atomic charges:
              1
     1  C   -0.454438
     2  H    0.144636
     3  H    0.146301
     4  H    0.141593
     5  C   -0.262912
     6  H    0.131115
     7  H    0.127453
     8  C   -0.018939
     9  H    0.116785
    10  C   -0.262905
    11  H    0.127448
    12  H    0.131114
    13  C   -0.454428
    14  H    0.146285
    15  H    0.141588
    16  H    0.144648
    17  C   -0.487056
    18  H    0.146935
    19  H    0.147832
    20  H    0.146945
 Sum of Mulliken atomic charges =   0.00000

 Dipole moment (field-independent basis, Debye):
    X=              0.0000    Y=              0.0622    Z=              0.0008  Tot=              0.0622
 N-N= 1.670490475030D+02 E-N=-2.549896404524D+02  KE=-5.623176842031D+01
 Leave Link  601 at Mon Sep 14 19:14:47 2015, MaxMem=  402653184 cpu:       0.0
 (Enter /share/apps/g09/l9999.exe)
 1\1\GINC-COMPUTE-0-7\FOpt\RPM6\ZDO\C6H14\HETANJIN\14-Sep-2015\0\\#p PM
 6 opt\\using PM6 to do opt and freq calc.\\0,1\C,-2.501430674,-0.24123
 60596,-0.4307188219\H,-2.3865640242,-0.4145582282,-1.5066245524\H,-2.7
 292376246,0.8221676454,-0.2930497763\H,-3.3760734273,-0.8101544504,-0.
 0966991014\C,-1.2500003589,-0.6519429134,0.341567867\H,-1.4096611698,-
 0.4951245316,1.4254017569\H,-1.0870011174,-1.7404780962,0.2162438348\C
 ,0.0098173351,0.1160215364,-0.11826168\H,0.0560195238,0.0802813894,-1.

 Normal termination of Gaussian 09 at Mon Sep 14 19:14:49 2015.
