 Gaussian 09, Revision A.01,
 Gaussian 09:  EM64L-G09RevA.01  8-May-2009

 -----------------------------------------
 #p B3LYP/6-31G(d) opt=tight int=ultrafine
 -----------------------------------------

 ---------------------------------------------
 using B3LYP/6-31G(d) to do opt and freq calc.
 ---------------------------------------------
 Symbolic Z-matrix:
 Charge =  0 Multiplicity = 1

 SCF Done:  E(RB3LYP) =  -237.081632225     A.U. after   12 cycles
 SCF Done:  E(RB3LYP) =  -237.082679132     A.U. after   10 cycles
 SCF Done:  E(RB3LYP) =  -237.082873277     A.U. after    9 cycles
 SCF Done:  E(RB3LYP) =  -237.082943867     A.U. after    9 cycles
 SCF Done:  E(RB3LYP) =  -237.082979389     A.U. after    9 cycles
 SCF Done:  E(RB3LYP) =  -237.082988946     A.U. after    9 cycles
 SCF Done:  E(RB3LYP) =  -237.082990997     A.U. after    7 cycles
 SCF Done:  E(RB3LYP) =  -237.082991126     A.U. after    6 cycles
 SCF Done:  E(RB3LYP) =  -237.082991129     A.U. after    5 cycles
 SCF Done:  E(RB3LYP) =  -237.082991129     A.U. after    3 cycles
 Optimization completed.
    -- Stationary point found.

                         Standard orientation:
 ---------------------------------------------------------------------
 Center     Atomic      Atomic             Coordinates (Angstroms)
 Number     Number       Type             X           Y           Z
 ---------------------------------------------------------------------
      1          6           0       -2.244559   -0.907914   -0.158789
      2          1           0       -2.222492   -1.082867   -1.241927
      3          1           0       -2.869503   -0.026682    0.021936
      4          1           0       -2.746940   -1.765129    0.304115
      5          6           0       -0.826934   -0.737851    0.401630
      6          1           0       -0.880972   -0.547511    1.484297
      7          1           0       -0.295957   -1.691194    0.287692
      8          6           0        0.001348    0.384537   -0.257403
      9          1           0        0.011924    0.197273   -1.343895
     10          6           0        1.467213    0.381697    0.227378
     11          1           0        1.481057    0.490414    1.322311
     12          1           0        1.963147    1.278406   -0.169527
     13          6           0        2.289961   -0.847807   -0.176374
     14          1           0        2.288051   -0.983691   -1.265262
     15          1           0        3.333374   -0.739440    0.141467
     16          1           0        1.907330   -1.770427    0.273324
     17          6           0       -0.624523    1.769097   -0.024904
     18          1           0       -1.642689    1.834306   -0.422477
     19          1           0       -0.669989    2.001784    1.047514
     20          1           0       -0.031377    2.554202   -0.508801
 ---------------------------------------------------------------------

 The electronic state is 1-A.
 Alpha  occ. eigenvalues --  -10.18105 -10.17463 -10.17418 -10.16987 -10.16967
 Alpha  occ. eigenvalues --  -10.16749  -0.80679  -0.74192  -0.70881  -0.63652
 Alpha  occ. eigenvalues --   -0.60384  -0.54788  -0.45844  -0.44059  -0.43415
 Alpha  occ. eigenvalues --   -0.41129  -0.40313  -0.37848  -0.36334  -0.35832
 Alpha  occ. eigenvalues --   -0.34531  -0.33710  -0.31325  -0.30583  -0.30356
 Alpha virt. eigenvalues --    0.08878   0.11000   0.12144   0.12861   0.15602
 Alpha virt. eigenvalues --    0.15686   0.16775   0.17332   0.17770   0.18353
 Alpha virt. eigenvalues --    0.18930   0.19581   0.22133   0.23115   0.25224

 Mulliken atomic charges:
              1
     1  C   -0.448070
     2  H    0.140465
     3  H    0.145559
     4  H    0.140903
     5  C   -0.248804
     6  H    0.125133
     7  H    0.133028
     8  C   -0.057325
     9  H    0.113488
    10  C   -0.245886
    11  H    0.126143
    12  H    0.127238
    13  C   -0.449082
    14  H    0.140629
    15  H    0.141495
    16  H    0.146143
    17  C   -0.450549
    18  H    0.143660
    19  H    0.137180
    20  H    0.138655
 Sum of Mulliken atomic charges =   0.00000

 Dipole moment (field-independent basis, Debye):
    X=              0.0401    Y=             -0.0259    Z=             -0.0122  Tot=              0.0492
 Quadrupole moment (field-independent basis, Debye-Ang):
   XX=            -41.8608   YY=            -41.7599   ZZ=            -41.1974
   XY=              0.1979   XZ=             -0.1090   YZ=             -0.1492

 Normal termination of Gaussian 09 at Fri Sep 18 13:33:42 2015.
