 Gaussian 09, Revision D.01,
 Gaussian 09:  ES64L-G09RevD.01 24-Apr-2013

 ----------------------------------------------
 #p B3LYP/6-31G(d) opt=tight int=ultrafine freq
 ----------------------------------------------

 ---------------------------------------------
 using B3LYP/6-31G(d) to do opt and freq calc.
 ---------------------------------------------
 Symbolic Z-matrix:
 Charge =  0 Multiplicity = 2

 SCF Done:  E(UB3LYP) =  -236.402319562     A.U. after   14 cycles
 SCF Done:  E(UB3LYP) =  -236.410369896     A.U. after   14 cycles
 SCF Done:  E(UB3LYP) =  -236.412283194     A.U. after   14 cycles
 SCF Done:  E(UB3LYP) =  -236.412446646     A.U. after   11 cycles
 SCF Done:  E(UB3LYP) =  -236.412485452     A.U. after   10 cycles
 SCF Done:  E(UB3LYP) =  -236.412492077     A.U. after    8 cycles
 SCF Done:  E(UB3LYP) =  -236.412492522     A.U. after    7 cycles
 SCF Done:  E(UB3LYP) =  -236.412492565     A.U. after    7 cycles
 SCF Done:  E(UB3LYP) =  -236.412492570     A.U. after    6 cycles
 SCF Done:  E(UB3LYP) =  -236.412492572     A.U. after    5 cycles
 SCF Done:  E(UB3LYP) =  -236.412492573     A.U. after    5 cycles
 SCF Done:  E(UB3LYP) =  -236.412492573     A.U. after    5 cycles
 Optimization completed.
    -- Stationary point found.
 Normal termination of Gaussian 09 at Sat Nov  7 02:07:58 2015.

 --------------------------------------------------------------------
 #P Geom=AllCheck Guess=TCheck SCRF=Check GenChk UB3LYP/6-31G(d) Freq
 --------------------------------------------------------------------

 Structure from the checkpoint file:  "/state/partition1/Gau-2412.chk"
 ---------------------------------------------
 using B3LYP/6-31G(d) to do opt and freq calc.
 ---------------------------------------------
 Charge =  0 Multiplicity = 2

                         Standard orientation:
 ---------------------------------------------------------------------
 Center     Atomic      Atomic             Coordinates (Angstroms)
 Number     Number       Type             X           Y           Z
 ---------------------------------------------------------------------
      1          6           0        2.230588   -0.944180    0.053833
      2          1           0        2.042267   -1.932044   -0.385737
      3          1           0        2.297797   -1.063729    1.141795
      4          1           0        3.203696   -0.591607   -0.305151
      5          6           0        1.101013    0.049071   -0.321328
      6          1           0        1.075669    0.102896   -1.421427
      7          6           0       -0.266225   -0.478830    0.160181
      8          1           0       -0.269761   -0.500843    1.261127
      9          1           0       -0.380253   -1.523156   -0.164821
     10          6           0       -1.465735    0.337356   -0.337589
     11          1           0       -1.459791    0.350862   -1.437038
     12          1           0       -1.349500    1.382697   -0.021858
     13          6           0       -2.809453   -0.205401    0.159063
     14          1           0       -2.859805   -0.197986    1.255042
     15          1           0       -3.646801    0.394219   -0.216080
     16          1           0       -2.967157   -1.239997   -0.170599
     17          6           0        1.396740    1.416930    0.210491
     18          1           0        1.113232    1.685073    1.225647
     19          1           0        2.078837    2.083936   -0.308804
 ---------------------------------------------------------------------

 SCF Done:  E(UB3LYP) =  -236.412492573     A.U. after    1 cycles

 The electronic state is 2-A.
 Alpha  occ. eigenvalues --  -10.18836 -10.18293 -10.17477 -10.17442 -10.17355
 Alpha  occ. eigenvalues --  -10.16958  -0.80880  -0.75536  -0.67366  -0.66660
 Alpha  occ. eigenvalues --   -0.58658  -0.55310  -0.47061  -0.44213  -0.42675
 Alpha  occ. eigenvalues --   -0.40988  -0.39453  -0.38753  -0.37329  -0.35304
 Alpha  occ. eigenvalues --   -0.33705  -0.32150  -0.31982  -0.31095  -0.19614
 Alpha virt. eigenvalues --    0.09264   0.11351   0.12301   0.14118   0.15047
 Alpha virt. eigenvalues --    0.15805   0.17269   0.17418   0.18082   0.18214
 Alpha virt. eigenvalues --    0.20012   0.20321   0.21537   0.22694   0.25788

  Beta  occ. eigenvalues --  -10.18919 -10.17452 -10.17427 -10.17206 -10.16959
  Beta  occ. eigenvalues --  -10.16914  -0.80375  -0.75165  -0.67073  -0.64487
  Beta  occ. eigenvalues --   -0.58448  -0.54592  -0.46750  -0.44015  -0.42295
  Beta  occ. eigenvalues --   -0.40502  -0.39137  -0.38460  -0.37139  -0.34888
  Beta  occ. eigenvalues --   -0.33368  -0.31861  -0.31830  -0.30905
  Beta virt. eigenvalues --   -0.03832   0.09403   0.11493   0.12442   0.14642
  Beta virt. eigenvalues --    0.15470   0.16323   0.17386   0.17642   0.18205
  Beta virt. eigenvalues --    0.18380   0.20070   0.20593   0.21879   0.22825

 Mulliken charges and spin densities:
               1          2
     1  C   -0.438815   0.045125
     2  H    0.139468   0.015522
     3  H    0.141818  -0.000338
     4  H    0.142018  -0.001161
     5  C   -0.075485  -0.071436
     6  H    0.125443   0.013053
     7  C   -0.247817   0.011420
     8  H    0.123708  -0.000798
     9  H    0.124313  -0.000886
    10  C   -0.247920   0.006742
    11  H    0.128411   0.000073
    12  H    0.138685   0.000167
    13  C   -0.441912  -0.000358
    14  H    0.140349   0.000078
    15  H    0.141261   0.000222
    16  H    0.140076   0.000696
    17  C   -0.309121   1.082389
    18  H    0.137056  -0.050022
    19  H    0.138464  -0.050489
 Sum of Mulliken charges =   0.00000   1.00000

 Dipole moment (field-independent basis, Debye):
    X=              0.1286    Y=             -0.1454    Z=             -0.0562  Tot=              0.2021
 Quadrupole moment (field-independent basis, Debye-Ang):
   XX=            -41.2670   YY=            -41.0975   ZZ=            -40.0510
   XY=              0.2698   XZ=             -0.3829   YZ=              0.3952

  Exact polarizability:  70.983   1.010  62.716  -1.481   1.057  57.122
 Approx polarizability:  80.590   1.817  85.201  -2.059   2.201  83.290

                      1                      2                      3
                      A                      A                      A
 Frequencies --     88.7199               116.1571               130.3410
 Red. masses --      1.8493                 2.1390                 1.0186
 Frc consts  --      0.0086                 0.0170                 0.0102
 IR Inten    --      0.0073                 0.0746                 0.6519

                      4                      5                      6
                      A                      A                      A
 Frequencies --    173.2839               248.0089               250.5870
 Red. masses --      2.5544                 1.0682                 1.1163
 Frc consts  --      0.0452                 0.0387                 0.0413
 IR Inten    --      0.0548                 0.0425                 0.0418

                      7                      8                      9
                      A                      A                      A
 Frequencies --    301.0672               369.1950               414.0785
 Red. masses --      2.0735                 2.1704                 2.1650
 Frc consts  --      0.1107                 0.1743                 0.2187
 IR Inten    --      1.8816                 1.3318                 8.5042

                     10                     11                     12
                      A                      A                      A
 Frequencies --    441.8328               545.4978               753.2530
 Red. masses --      1.9791                 2.0353                 1.1020
 Frc consts  --      0.2276                 0.3568                 0.3684
 IR Inten    --      0.0510                33.0913                 2.3470

                     13                     14                     15
                      A                      A                      A
 Frequencies --    842.2677               870.1805               906.7169
 Red. masses --      2.2878                 1.2079                 2.0980
 Frc consts  --      0.9563                 0.5389                 1.0163
 IR Inten    --      0.3932                 0.2819                 1.5741

                     16                     17                     18
                      A                      A                      A
 Frequencies --    934.7467               984.6320              1028.0040
 Red. masses --      1.2970                 1.6114                 1.6721
 Frc consts  --      0.6677                 0.9205                 1.0411
 IR Inten    --      0.8371                 2.5116                 0.3608

                     19                     20                     21
                      A                      A                      A
 Frequencies --   1035.3774              1059.7417              1118.9572
 Red. masses --      1.7578                 2.4344                 1.9703
 Frc consts  --      1.1102                 1.6108                 1.4534
 IR Inten    --      0.2455                 0.2477                 2.8218

                     22                     23                     24
                      A                      A                      A
 Frequencies --   1180.5414              1208.4864              1280.9381
 Red. masses --      2.0127                 1.9882                 1.3598
 Frc consts  --      1.6527                 1.7108                 1.3146
 IR Inten    --      0.9742                 0.2130                 1.2484

                     25                     26                     27
                      A                      A                      A
 Frequencies --   1309.2241              1336.0337              1354.0455
 Red. masses --      1.2356                 1.1553                 1.2671
 Frc consts  --      1.2479                 1.2150                 1.3687
 IR Inten    --      2.6424                 0.6769                 1.0119

                     28                     29                     30
                      A                      A                      A
 Frequencies --   1388.1594              1410.9357              1427.3387
 Red. masses --      1.3819                 1.4889                 1.2475
 Frc consts  --      1.5690                 1.7463                 1.4975
 IR Inten    --      2.1710                 0.8256                 0.2725

                     31                     32                     33
                      A                      A                      A
 Frequencies --   1440.7351              1485.7705              1514.6122
 Red. masses --      1.2444                 1.1789                 1.0770
 Frc consts  --      1.5219                 1.5333                 1.4557
 IR Inten    --      1.0931                 0.6710                 0.3670

                     34                     35                     36
                      A                      A                      A
 Frequencies --   1522.9875              1524.5420              1528.9213
 Red. masses --      1.0570                 1.0495                 1.0583
 Frc consts  --      1.4445                 1.4372                 1.4575
 IR Inten    --      0.4345                 5.5599                 5.0597

                     37                     38                     39
                      A                      A                      A
 Frequencies --   1530.2266              1540.2559              2997.0037
 Red. masses --      1.0492                 1.0812                 1.0812
 Frc consts  --      1.4476                 1.5113                 5.7220
 IR Inten    --      2.5439                 3.2822                11.7217

                     40                     41                     42
                      A                      A                      A
 Frequencies --   3011.4764              3028.7888              3037.1429
 Red. masses --      1.0612                 1.0635                 1.0368
 Frc consts  --      5.6704                 5.7480                 5.6349
 IR Inten    --     19.6213                37.3639                37.9734

                     43                     44                     45
                      A                      A                      A
 Frequencies --   3039.7675              3043.5681              3067.5677
 Red. masses --      1.0363                 1.0957                 1.1028
 Frc consts  --      5.6417                 5.9798                 6.1141
 IR Inten    --     40.0840                12.5082                30.2381

                     46                     47                     48
                      A                      A                      A
 Frequencies --   3103.7194              3104.8810              3109.2192
 Red. masses --      1.1025                 1.1020                 1.1017
 Frc consts  --      6.2574                 6.2595                 6.2752
 IR Inten    --      7.6415                97.8468                42.9432

                     49                     50                     51
                      A                      A                      A
 Frequencies --   3116.4045              3151.1832              3248.9456
 Red. masses --      1.1026                 1.0511                 1.1176
 Frc consts  --      6.3093                 6.1497                 6.9507
 IR Inten    --     36.4986                16.3372                20.5289

 - Thermochemistry -
 -------------------
 Temperature   298.150 Kelvin.  Pressure   1.00000 Atm.
 Atom     1 has atomic number  6 and mass  12.00000

 Molecular mass:    85.10173 amu.
 Principal axes and moments of inertia in atomic units:
                           1         2         3
     Eigenvalues --   259.544581052.468881209.44234
           X            0.99999  -0.00362  -0.00149
           Y            0.00361   0.99999  -0.00123
           Z            0.00149   0.00123   1.00000
 This molecule is an asymmetric top.
 Rotational symmetry number  1.
 Rotational temperatures (Kelvin)      0.33371     0.08230     0.07161
 Rotational constants (GHZ):           6.95349     1.71477     1.49221
 Zero-point vibrational energy     458505.1 (Joules/Mol)
                                  109.58535 (Kcal/Mol)
 Warning -- explicit consideration of  11 degrees of freedom as
           vibrations may cause significant error
 Vibrational temperatures:    127.65   167.12   187.53   249.32   356.83
          (Kelvin)            360.54   433.17   531.19   595.77   635.70
                              784.85  1083.76  1211.83  1251.99  1304.56
                             1344.89  1416.66  1479.07  1489.68  1524.73
                             1609.93  1698.53  1738.74  1842.98  1883.68
                             1922.25  1948.17  1997.25  2030.02  2053.62
                             2072.89  2137.69  2179.19  2191.24  2193.47
                             2199.77  2201.65  2216.08  4312.01  4332.84
                             4357.75  4369.77  4373.54  4379.01  4413.54
                             4465.55  4467.23  4473.47  4483.81  4533.84
                             4674.50

 Zero-point correction=                           0.174635 (Hartree/Particle)
 Thermal correction to Energy=                    0.183316
 Thermal correction to Enthalpy=                  0.184261
 Thermal correction to Gibbs Free Energy=         0.141539
 Sum of electronic and zero-point Energies=           -236.237857
 Sum of electronic and thermal Energies=              -236.229176
 Sum of electronic and thermal Enthalpies=            -236.228232
 Sum of electronic and thermal Free Energies=         -236.270953

                     E (Thermal)             CV                S
                      KCal/Mol        Cal/Mol-Kelvin    Cal/Mol-Kelvin
 Total                  115.033             30.684             89.915
 Electronic               0.000              0.000              1.377
 Translational            0.889              2.981             39.237
 Rotational               0.889              2.981             27.293
 Vibrational            113.255             24.722             22.007
 Vibration     1          0.602              1.957              3.688
 Vibration     2          0.608              1.936              3.163
 Vibration     3          0.612              1.923              2.941
 Vibration     4          0.627              1.875              2.400
 Vibration     5          0.662              1.766              1.745
 Vibration     6          0.663              1.762              1.726
 Vibration     7          0.693              1.672              1.411
 Vibration     8          0.741              1.536              1.083
 Vibration     9          0.778              1.440              0.912
 Vibration    10          0.802              1.379              0.821
 Vibration    11          0.901              1.150              0.554

 Optimization completed.
    -- Stationary point found.
 Normal termination of Gaussian 09 at Sat Nov  7 02:14:55 2015.
