 Gaussian 09, Revision A.01,
 Gaussian 09:  EM64L-G09RevA.01  8-May-2009

 ----------
 #p PM6 opt
 ----------

 ----------------------------------
 using PM6 to do opt and freq calc.
 ----------------------------------
 Symbolic Z-matrix:
 Charge =  0 Multiplicity = 1

 SCF Done:  E(RPM6) = -0.553833494524E-01 A.U. after   13 cycles
 SCF Done:  E(RPM6) = -0.580995114561E-01 A.U. after   11 cycles
 SCF Done:  E(RPM6) = -0.582859548612E-01 A.U. after   11 cycles
 SCF Done:  E(RPM6) = -0.583523536974E-01 A.U. after   11 cycles
 SCF Done:  E(RPM6) = -0.583800002394E-01 A.U. after   11 cycles
 SCF Done:  E(RPM6) = -0.583882475623E-01 A.U. after   10 cycles
 SCF Done:  E(RPM6) = -0.583909875378E-01 A.U. after    9 cycles
 SCF Done:  E(RPM6) = -0.583914326247E-01 A.U. after    8 cycles
 SCF Done:  E(RPM6) = -0.583914767202E-01 A.U. after    7 cycles
 SCF Done:  E(RPM6) = -0.583915048609E-01 A.U. after    7 cycles
 Optimization completed.
    -- Stationary point found.

                         Standard orientation:
 ---------------------------------------------------------------------
 Center     Atomic      Atomic             Coordinates (Angstroms)
 Number     Number       Type             X           Y           Z
 ---------------------------------------------------------------------
      1          6           0        2.150165   -1.028734    0.015649
      2          1           0        1.931998   -2.011946   -0.413515
      3          1           0        2.252757   -1.156654    1.098444
      4          1           0        3.125501   -0.712223   -0.368691
      5          6           0        1.057451   -0.007729   -0.332751
      6          1           0        0.983562    0.057242   -1.447037
      7          6           0       -0.303697   -0.478702    0.222287
      8          1           0       -0.310536   -0.392286    1.324837
      9          1           0       -0.436821   -1.556664    0.008878
     10          6           0       -1.480369    0.307327   -0.371443
     11          1           0       -1.468496    0.225630   -1.475880
     12          1           0       -1.363745    1.385914   -0.146507
     13          6           0       -2.820985   -0.188237    0.167341
     14          1           0       -2.878876   -0.088528    1.257110
     15          1           0       -3.654093    0.380969   -0.259357
     16          1           0       -2.987152   -1.244259   -0.073454
     17          6           0        1.433101    1.378291    0.207482
     18          1           0        0.670449    2.123645   -0.042479
     19          1           0        1.538018    1.371354    1.297579
     20          1           0        2.383438    1.724507   -0.211322
 ---------------------------------------------------------------------

 The electronic state is 1-A.
 Alpha  occ. eigenvalues --   -1.06232  -0.99036  -0.88416  -0.86326  -0.75068
 Alpha  occ. eigenvalues --   -0.71008  -0.58812  -0.55724  -0.54903  -0.52251
 Alpha  occ. eigenvalues --   -0.49870  -0.48209  -0.48023  -0.46265  -0.44677
 Alpha  occ. eigenvalues --   -0.42957  -0.41162  -0.40928  -0.40472
 Alpha virt. eigenvalues --    0.15318   0.15687   0.16969   0.17544   0.18551
 Alpha virt. eigenvalues --    0.20783   0.21770   0.22077   0.22254   0.22289
 Alpha virt. eigenvalues --    0.22431   0.22511   0.23485   0.23621   0.24505

 Mulliken atomic charges:
              1
     1  C   -0.504029
     2  H    0.147802
     3  H    0.151557
     4  H    0.149538
     5  C    0.027469
     6  H    0.108581
     7  C   -0.308960
     8  H    0.137929
     9  H    0.135338
    10  C   -0.213067
    11  H    0.123927
    12  H    0.125749
    13  C   -0.465823
    14  H    0.146480
    15  H    0.143431
    16  H    0.146108
    17  C   -0.498728
    18  H    0.148647
    19  H    0.151041
    20  H    0.147011
 Sum of Mulliken atomic charges =   0.00000

 Dipole moment (field-independent basis, Debye):
    X=              0.0158    Y=             -0.0225    Z=              0.1013  Tot=              0.1050
 N-N= 1.656351976196D+02 E-N=-2.521520364766D+02  KE=-5.622838421618D+01
 Leave Link  601 at Mon Sep 14 19:13:58 2015, MaxMem=  402653184 cpu:       0.0
 (Enter /share/apps/g09/l9999.exe)
 1\1\GINC-COMPUTE-0-4\FOpt\RPM6\ZDO\C6H14\HETANJIN\14-Sep-2015\0\\#p PM
 6 opt\\using PM6 to do opt and freq calc.\\0,1\C,2.1565365204,-0.35049
 34486,0.5124549545\H,2.1006784125,-1.4352733213,0.6488984767\H,2.17540
 1656,0.1067475375,1.507396387\H,3.1164088627,-0.1291074156,0.034112996
 1\C,0.9828004914,0.1719802563,-0.3285103374\H,1.0028936526,-0.35026404
 09,-1.3175360575\C,-0.3548642316,-0.1523044035,0.3701306462\H,-0.47227
 61923,0.4800501911,1.2698375991\H,-0.3346107733,-1.1948733148,0.741489

 Normal termination of Gaussian 09 at Mon Sep 14 19:13:59 2015.
