 Gaussian 09, Revision A.01,
 Gaussian 09:  EM64L-G09RevA.01  8-May-2009

 -----------------------------------------
 #p B3LYP/6-31G(d) opt=tight int=ultrafine
 -----------------------------------------

 ---------------------------------------------
 using B3LYP/6-31G(d) to do opt and freq calc.
 ---------------------------------------------
 Symbolic Z-matrix:
 Charge =  0 Multiplicity = 1

 SCF Done:  E(RB3LYP) =  -237.081903083     A.U. after   12 cycles
 SCF Done:  E(RB3LYP) =  -237.082928794     A.U. after    9 cycles
 SCF Done:  E(RB3LYP) =  -237.083222889     A.U. after   10 cycles
 SCF Done:  E(RB3LYP) =  -237.083410400     A.U. after   10 cycles
 SCF Done:  E(RB3LYP) =  -237.083435990     A.U. after   11 cycles
 SCF Done:  E(RB3LYP) =  -237.083462893     A.U. after   10 cycles
 SCF Done:  E(RB3LYP) =  -237.083467086     A.U. after    9 cycles
 SCF Done:  E(RB3LYP) =  -237.083467145     A.U. after    6 cycles
 SCF Done:  E(RB3LYP) =  -237.083467147     A.U. after    6 cycles
 SCF Done:  E(RB3LYP) =  -237.083467148     A.U. after    5 cycles
 Optimization completed.
    -- Stationary point found.

                         Standard orientation:
 ---------------------------------------------------------------------
 Center     Atomic      Atomic             Coordinates (Angstroms)
 Number     Number       Type             X           Y           Z
 ---------------------------------------------------------------------
      1          6           0        2.138732   -0.840696   -0.262726
      2          1           0        1.950247   -1.879291   -0.560302
      3          1           0        2.574280   -0.857794    0.745166
      4          1           0        2.893544   -0.428251   -0.942946
      5          6           0        0.848242   -0.007403   -0.288725
      6          1           0        0.465001   -0.026310   -1.319577
      7          6           0       -0.213636   -0.642238    0.633154
      8          1           0        0.176207   -0.638653    1.662391
      9          1           0       -0.325666   -1.701190    0.356128
     10          6           0       -1.606701    0.011287    0.630647
     11          1           0       -1.533163    1.053239    0.969132
     12          1           0       -2.224683   -0.501498    1.380143
     13          6           0       -2.327509   -0.036722   -0.721983
     14          1           0       -2.416762   -1.068361   -1.085403
     15          1           0       -3.339709    0.376502   -0.643471
     16          1           0       -1.797436    0.538567   -1.489590
     17          6           0        1.143862    1.454917    0.077442
     18          1           0        0.256208    2.090778   -0.011468
     19          1           0        1.507523    1.532851    1.110845
     20          1           0        1.916474    1.874542   -0.577903
 ---------------------------------------------------------------------

 The electronic state is 1-A.
 Alpha  occ. eigenvalues --  -10.18232 -10.17598 -10.17271 -10.16993 -10.16813
 Alpha  occ. eigenvalues --  -10.16799  -0.80549  -0.75284  -0.67661  -0.67047
 Alpha  occ. eigenvalues --   -0.59450  -0.54217  -0.46363  -0.44953  -0.42195
 Alpha  occ. eigenvalues --   -0.41482  -0.39985  -0.37934  -0.37228  -0.35207
 Alpha  occ. eigenvalues --   -0.34250  -0.33680  -0.31360  -0.30909  -0.30218
 Alpha virt. eigenvalues --    0.08151   0.11763   0.12350   0.13217   0.15002
 Alpha virt. eigenvalues --    0.15568   0.15968   0.17262   0.18200   0.18787
 Alpha virt. eigenvalues --    0.19491   0.21135   0.21348   0.22734   0.24159

 Mulliken atomic charges:
              1
     1  C   -0.441294
     2  H    0.138515
     3  H    0.137378
     4  H    0.137885
     5  C   -0.066412
     6  H    0.123802
     7  C   -0.242967
     8  H    0.122279
     9  H    0.123071
    10  C   -0.254780
    11  H    0.133786
    12  H    0.130228
    13  C   -0.443787
    14  H    0.140329
    15  H    0.141175
    16  H    0.146018
    17  C   -0.445106
    18  H    0.143946
    19  H    0.137132
    20  H    0.138804
 Sum of Mulliken atomic charges =   0.00000

 Dipole moment (field-independent basis, Debye):
    X=             -0.0689    Y=              0.0077    Z=             -0.0193  Tot=              0.0720
 Quadrupole moment (field-independent basis, Debye-Ang):
   XX=            -41.8666   YY=            -41.5953   ZZ=            -41.3951
   XY=              0.1530   XZ=             -0.2173   YZ=             -0.0484

 Normal termination of Gaussian 09 at Fri Sep 18 13:32:44 2015.
