 Gaussian 09, Revision A.01,
 Gaussian 09:  EM64L-G09RevA.01  8-May-2009

 ----------
 #p PM6 opt
 ----------

 ----------------------------------
 using PM6 to do opt and freq calc.
 ----------------------------------
 Symbolic Z-matrix:
 Charge =  0 Multiplicity = 1

 SCF Done:  E(RPM6) = -0.527403872748E-01 A.U. after   13 cycles
 SCF Done:  E(RPM6) = -0.554533525527E-01 A.U. after   11 cycles
 SCF Done:  E(RPM6) = -0.556847769960E-01 A.U. after   11 cycles
 SCF Done:  E(RPM6) = -0.557490387414E-01 A.U. after   10 cycles
 SCF Done:  E(RPM6) = -0.557647622337E-01 A.U. after   10 cycles
 SCF Done:  E(RPM6) = -0.557735820301E-01 A.U. after   10 cycles
 SCF Done:  E(RPM6) = -0.557757034059E-01 A.U. after    9 cycles
 SCF Done:  E(RPM6) = -0.557767595481E-01 A.U. after    9 cycles
 SCF Done:  E(RPM6) = -0.557768932770E-01 A.U. after    8 cycles
 SCF Done:  E(RPM6) = -0.557769623332E-01 A.U. after    8 cycles
 SCF Done:  E(RPM6) = -0.557769890855E-01 A.U. after    7 cycles
 Optimization completed.
    -- Stationary point found.

                         Standard orientation:
 ---------------------------------------------------------------------
 Center     Atomic      Atomic             Coordinates (Angstroms)
 Number     Number       Type             X           Y           Z
 ---------------------------------------------------------------------
      1          6           0        2.119935   -0.611814   -0.540273
      2          1           0        2.196568    0.230282   -1.237776
      3          1           0        1.615916   -1.428610   -1.068430
      4          1           0        3.138381   -0.945595   -0.313239
      5          6           0        1.375063   -0.217453    0.732392
      6          1           0        1.323993   -1.089934    1.413151
      7          1           0        1.960952    0.550688    1.275136
      8          6           0       -0.054187    0.322170    0.498108
      9          1           0       -0.491797    0.533150    1.507575
     10          6           0       -0.942453   -0.732442   -0.195499
     11          1           0       -0.725423   -1.733187    0.226380
     12          1           0       -0.679568   -0.796283   -1.268752
     13          6           0       -2.432321   -0.432466   -0.045851
     14          1           0       -2.694382    0.536152   -0.486820
     15          1           0       -3.040372   -1.195165   -0.544585
     16          1           0       -2.735881   -0.406021    1.006575
     17          6           0       -0.030976    1.638716   -0.287573
     18          1           0        0.592738    2.388724    0.209114
     19          1           0        0.366607    1.498336   -1.298574
     20          1           0       -1.038101    2.057203   -0.387589
 ---------------------------------------------------------------------

 The electronic state is 1-A.
 Alpha  occ. eigenvalues --   -1.06466  -0.97227  -0.91588  -0.83476  -0.78105
 Alpha  occ. eigenvalues --   -0.68325  -0.58067  -0.56160  -0.55501  -0.52572
 Alpha  occ. eigenvalues --   -0.48764  -0.48322  -0.47738  -0.46559  -0.45404
 Alpha  occ. eigenvalues --   -0.42533  -0.40809  -0.40687  -0.40184
 Alpha virt. eigenvalues --    0.15455   0.16218   0.16540   0.17748   0.18484
 Alpha virt. eigenvalues --    0.21223   0.21395   0.21956   0.22135   0.22549
 Alpha virt. eigenvalues --    0.22682   0.23105   0.23344   0.23606   0.24357

 Mulliken atomic charges:
              1
     1  C   -0.449734
     2  H    0.146539
     3  H    0.144505
     4  H    0.139381
     5  C   -0.261560
     6  H    0.126329
     7  H    0.128343
     8  C   -0.019313
     9  H    0.110879
    10  C   -0.253861
    11  H    0.128239
    12  H    0.132327
    13  C   -0.458750
    14  H    0.146153
    15  H    0.141830
    16  H    0.144018
    17  C   -0.487239
    18  H    0.144972
    19  H    0.150213
    20  H    0.146727
 Sum of Mulliken atomic charges =   0.00000

 Dipole moment (field-independent basis, Debye):
    X=              0.0034    Y=              0.0308    Z=             -0.0647  Tot=              0.0717
 N-N= 1.683648564061D+02 E-N=-2.576250146886D+02  KE=-5.624648590637D+01
 Leave Link  601 at Mon Sep 14 19:15:07 2015, MaxMem=  402653184 cpu:       0.0
 (Enter /share/apps/g09/l9999.exe)
 1\1\GINC-COMPUTE-0-7\FOpt\RPM6\ZDO\C6H14\HETANJIN\14-Sep-2015\0\\#p PM
 6 opt\\using PM6 to do opt and freq calc.\\0,1\C,-2.4870329521,-0.6240
 899744,-0.4605153807\H,-2.2411685347,-1.2647534127,-1.3152727284\H,-2.
 8313132326,0.336016802,-0.860274704\H,-3.3316339199,-1.084087469,0.064
 1158877\C,-1.2903008104,-0.451581788,0.471205898\H,-1.5788616756,0.194
 4449026,1.3236401059\H,-1.0289819767,-1.4325989588,0.9152726574\C,-0.0
 315272538,0.1388061467,-0.203901189\H,0.7464487817,0.2453934347,0.5951

 Normal termination of Gaussian 09 at Mon Sep 14 19:15:09 2015.
