 Gaussian 09, Revision A.01,
 Gaussian 09:  EM64L-G09RevA.01  8-May-2009

 -----------------------------------------
 #p B3LYP/6-31G(d) opt=tight int=ultrafine
 -----------------------------------------

 ---------------------------------------------
 using B3LYP/6-31G(d) to do opt and freq calc.
 ---------------------------------------------
 Symbolic Z-matrix:
 Charge =  0 Multiplicity = 1

 SCF Done:  E(RB3LYP) =  -237.080794754     A.U. after   11 cycles
 SCF Done:  E(RB3LYP) =  -237.081716513     A.U. after    9 cycles
 SCF Done:  E(RB3LYP) =  -237.081885417     A.U. after    9 cycles
 SCF Done:  E(RB3LYP) =  -237.081917061     A.U. after    8 cycles
 SCF Done:  E(RB3LYP) =  -237.081925478     A.U. after    8 cycles
 SCF Done:  E(RB3LYP) =  -237.081926376     A.U. after    7 cycles
 SCF Done:  E(RB3LYP) =  -237.081926448     A.U. after    6 cycles
 SCF Done:  E(RB3LYP) =  -237.081926460     A.U. after    5 cycles
 SCF Done:  E(RB3LYP) =  -237.081926460     A.U. after    4 cycles
 SCF Done:  E(RB3LYP) =  -237.081926461     A.U. after    3 cycles
 Optimization completed.
    -- Stationary point found.

                         Standard orientation:
 ---------------------------------------------------------------------
 Center     Atomic      Atomic             Coordinates (Angstroms)
 Number     Number       Type             X           Y           Z
 ---------------------------------------------------------------------
      1          6           0        2.170894   -0.579519   -0.561505
      2          1           0        2.283965    0.281031   -1.230495
      3          1           0        1.677304   -1.378005   -1.126847
      4          1           0        3.177784   -0.931733   -0.309452
      5          6           0        1.394695   -0.216200    0.711716
      6          1           0        1.351977   -1.099454    1.364648
      7          1           0        1.961826    0.544010    1.267220
      8          6           0       -0.045800    0.306684    0.504014
      9          1           0       -0.443896    0.509187    1.511101
     10          6           0       -0.960765   -0.759577   -0.133800
     11          1           0       -0.799582   -1.714476    0.386782
     12          1           0       -0.659170   -0.927269   -1.177088
     13          6           0       -2.456268   -0.422632   -0.091599
     14          1           0       -2.691351    0.475036   -0.674177
     15          1           0       -3.055151   -1.244173   -0.501340
     16          1           0       -2.793395   -0.247800    0.937963
     17          6           0       -0.068220    1.635631   -0.269317
     18          1           0        0.608640    2.367487    0.188312
     19          1           0        0.243513    1.500989   -1.312350
     20          1           0       -1.069674    2.078857   -0.281331
 ---------------------------------------------------------------------

 The electronic state is 1-A.
 Alpha  occ. eigenvalues --  -10.18097 -10.17458 -10.17424 -10.16979 -10.16884
 Alpha  occ. eigenvalues --  -10.16748  -0.80623  -0.74160  -0.70520  -0.64366
 Alpha  occ. eigenvalues --   -0.60518  -0.53677  -0.45981  -0.44532  -0.43734
 Alpha  occ. eigenvalues --   -0.41476  -0.38345  -0.37825  -0.37400  -0.36166
 Alpha  occ. eigenvalues --   -0.35007  -0.33043  -0.31061  -0.30677  -0.30162
 Alpha virt. eigenvalues --    0.08309   0.11649   0.12389   0.12899   0.14953
 Alpha virt. eigenvalues --    0.16041   0.16115   0.17242   0.17665   0.18500
 Alpha virt. eigenvalues --    0.19086   0.21139   0.22176   0.22969   0.23981

 Mulliken atomic charges:
              1
     1  C   -0.449683
     2  H    0.145048
     3  H    0.145711
     4  H    0.141203
     5  C   -0.252180
     6  H    0.126718
     7  H    0.126225
     8  C   -0.056566
     9  H    0.115145
    10  C   -0.248230
    11  H    0.126715
    12  H    0.130665
    13  C   -0.448142
    14  H    0.145297
    15  H    0.141066
    16  H    0.140232
    17  C   -0.452668
    18  H    0.138357
    19  H    0.141306
    20  H    0.143785
 Sum of Mulliken atomic charges =   0.00000

 Dipole moment (field-independent basis, Debye):
    X=             -0.0040    Y=             -0.0265    Z=              0.0505  Tot=              0.0572
 Quadrupole moment (field-independent basis, Debye-Ang):
   XX=            -41.8858   YY=            -41.4807   ZZ=            -41.3554
   XY=              0.1407   XZ=              0.1355   YZ=              0.0218

 Normal termination of Gaussian 09 at Fri Sep 18 13:32:48 2015.
