 Gaussian 09, Revision D.01,
 Gaussian 09:  ES64L-G09RevD.01 24-Apr-2013

 ----------------------------------------------
 #p B3LYP/6-31G(d) opt=tight int=ultrafine freq
 ----------------------------------------------

 ---------------------------------------------
 using B3LYP/6-31G(d) to do opt and freq calc.
 ---------------------------------------------
 Symbolic Z-matrix:
 Charge =  0 Multiplicity = 2

 SCF Done:  E(UB3LYP) =  -236.401088221     A.U. after   14 cycles
 SCF Done:  E(UB3LYP) =  -236.409336219     A.U. after   13 cycles
 SCF Done:  E(UB3LYP) =  -236.411398574     A.U. after   13 cycles
 SCF Done:  E(UB3LYP) =  -236.411598046     A.U. after   11 cycles
 SCF Done:  E(UB3LYP) =  -236.411642564     A.U. after   10 cycles
 SCF Done:  E(UB3LYP) =  -236.411662524     A.U. after   10 cycles
 SCF Done:  E(UB3LYP) =  -236.411665801     A.U. after   10 cycles
 SCF Done:  E(UB3LYP) =  -236.411668233     A.U. after   10 cycles
 SCF Done:  E(UB3LYP) =  -236.411669784     A.U. after    9 cycles
 SCF Done:  E(UB3LYP) =  -236.411670083     A.U. after    7 cycles
 SCF Done:  E(UB3LYP) =  -236.411670109     A.U. after    7 cycles
 SCF Done:  E(UB3LYP) =  -236.411670107     A.U. after    6 cycles
 SCF Done:  E(UB3LYP) =  -236.411670107     A.U. after    3 cycles
 SCF Done:  E(UB3LYP) =  -236.411670107     A.U. after    4 cycles
 Optimization completed.
    -- Stationary point found.
 Normal termination of Gaussian 09 at Sat Nov  7 02:15:17 2015.

 --------------------------------------------------------------------
 #P Geom=AllCheck Guess=TCheck SCRF=Check GenChk UB3LYP/6-31G(d) Freq
 --------------------------------------------------------------------

 Structure from the checkpoint file:  "/state/partition1/Gau-4165.chk"
 ---------------------------------------------
 using B3LYP/6-31G(d) to do opt and freq calc.
 ---------------------------------------------
 Charge =  0 Multiplicity = 2

                         Standard orientation:
 ---------------------------------------------------------------------
 Center     Atomic      Atomic             Coordinates (Angstroms)
 Number     Number       Type             X           Y           Z
 ---------------------------------------------------------------------
      1          6           0       -2.529439   -0.148341   -0.278318
      2          1           0       -2.525706   -0.153449   -1.375660
      3          1           0       -2.724955    0.878863    0.048095
      4          1           0       -3.374274   -0.763264    0.052574
      5          6           0       -1.208404   -0.688815    0.281126
      6          1           0       -1.237503   -0.658876    1.380740
      7          1           0       -1.117997   -1.750057    0.009468
      8          6           0        0.053750    0.049890   -0.205312
      9          1           0        0.054862    0.018543   -1.307148
     10          6           0        1.327981   -0.684961    0.275516
     11          1           0        1.209903   -1.759916    0.037367
     12          1           0        1.382242   -0.637770    1.373477
     13          6           0        2.597668   -0.176200   -0.319879
     14          1           0        3.535354   -0.217412    0.225069
     15          1           0        2.642052    0.092728   -1.372197
     16          6           0        0.075023    1.522974    0.228682
     17          1           0       -0.768485    2.084982   -0.185905
     18          1           0        0.026951    1.605248    1.323023
     19          1           0        0.998080    2.013088   -0.099793
 ---------------------------------------------------------------------

 SCF Done:  E(UB3LYP) =  -236.411670107     A.U. after    1 cycles

 The electronic state is 2-A.
 Alpha  occ. eigenvalues --  -10.18418 -10.18403 -10.18090 -10.17620 -10.17079
 Alpha  occ. eigenvalues --  -10.16652  -0.81024  -0.74568  -0.70262  -0.64439
 Alpha  occ. eigenvalues --   -0.59011  -0.55188  -0.46281  -0.44780  -0.43056
 Alpha  occ. eigenvalues --   -0.41673  -0.39785  -0.37793  -0.36794  -0.35888
 Alpha  occ. eigenvalues --   -0.34714  -0.31819  -0.31430  -0.31061  -0.19521
 Alpha virt. eigenvalues --    0.09077   0.11896   0.12325   0.13304   0.14823
 Alpha virt. eigenvalues --    0.15943   0.16406   0.17471   0.17602   0.18396
 Alpha virt. eigenvalues --    0.20474   0.21770   0.22460   0.23795   0.25430

  Beta  occ. eigenvalues --  -10.18369 -10.18180 -10.17621 -10.17079 -10.17024
  Beta  occ. eigenvalues --  -10.16638  -0.80737  -0.73797  -0.69560  -0.63682
  Beta  occ. eigenvalues --   -0.57602  -0.54928  -0.46047  -0.44382  -0.42543
  Beta  occ. eigenvalues --   -0.41366  -0.39388  -0.37619  -0.36508  -0.35455
  Beta  occ. eigenvalues --   -0.34420  -0.31697  -0.31314  -0.30851
  Beta virt. eigenvalues --   -0.03638   0.09226   0.11948   0.12796   0.13686
  Beta virt. eigenvalues --    0.15328   0.16128   0.16566   0.17571   0.17751
  Beta virt. eigenvalues --    0.18608   0.20751   0.21936   0.22608   0.24043

 Mulliken charges and spin densities:
               1          2
     1  C   -0.448080  -0.000246
     2  H    0.140631   0.000034
     3  H    0.146737   0.000085
     4  H    0.141860   0.000436
     5  C   -0.247544   0.001009
     6  H    0.126791   0.000005
     7  H    0.127054   0.000386
     8  C   -0.064838   0.019649
     9  H    0.116657  -0.001410
    10  C   -0.260755  -0.078135
    11  H    0.139540   0.058149
    12  H    0.134465   0.009986
    13  C   -0.311842   1.082860
    14  H    0.140572  -0.051465
    15  H    0.138694  -0.050453
    16  C   -0.446854   0.008946
    17  H    0.142645  -0.000717
    18  H    0.135463   0.000098
    19  H    0.148804   0.000784
 Sum of Mulliken charges =   0.00000   1.00000

 Dipole moment (field-independent basis, Debye):
    X=             -0.1274    Y=             -0.2036    Z=              0.0102  Tot=              0.2404
 Quadrupole moment (field-independent basis, Debye-Ang):
   XX=            -41.1722   YY=            -41.3983   ZZ=            -40.0524
   XY=             -0.1177   XZ=              0.1300   YZ=             -0.2165

  Exact polarizability:  74.000   1.319  57.939  -0.118  -1.432  57.395
 Approx polarizability:  86.199   1.899  78.580  -0.396  -1.816  83.945

                      1                      2                      3
                      A                      A                      A
 Frequencies --     88.6997               114.0811               120.8808
 Red. masses --      2.0594                 1.4883                 1.1699
 Frc consts  --      0.0095                 0.0114                 0.0101
 IR Inten    --      0.0025                 0.3095                 0.7000

                      4                      5                      6
                      A                      A                      A
 Frequencies --    203.3804               218.2744               262.4073
 Red. masses --      2.5022                 1.0377                 1.2042
 Frc consts  --      0.0610                 0.0291                 0.0489
 IR Inten    --      0.1176                 0.0919                 0.0081

                      7                      8                      9
                      A                      A                      A
 Frequencies --    300.7928               385.9670               431.3319
 Red. masses --      2.2728                 2.4095                 2.2793
 Frc consts  --      0.1212                 0.2115                 0.2498
 IR Inten    --      0.1425                 1.4303                 1.7599

                     10                     11                     12
                      A                      A                      A
 Frequencies --    441.7890               493.1774               774.5799
 Red. masses --      1.6300                 1.6341                 1.4103
 Frc consts  --      0.1874                 0.2342                 0.4985
 IR Inten    --     14.8460                24.8043                 1.8264

                     13                     14                     15
                      A                      A                      A
 Frequencies --    820.1207               827.8523               902.1253
 Red. masses --      1.6354                 1.4577                 2.1898
 Frc consts  --      0.6481                 0.5886                 1.0500
 IR Inten    --      0.6819                 0.4575                 0.7194

                     16                     17                     18
                      A                      A                      A
 Frequencies --    967.4859               999.2731              1013.5780
 Red. masses --      1.2055                 1.2400                 1.6924
 Frc consts  --      0.6648                 0.7295                 1.0244
 IR Inten    --      1.0668                 3.7701                 3.1798

                     19                     20                     21
                      A                      A                      A
 Frequencies --   1048.7471              1091.7272              1131.8446
 Red. masses --      2.4425                 2.6574                 1.7055
 Frc consts  --      1.5828                 1.8661                 1.2873
 IR Inten    --      0.1907                 0.4359                 0.7557

                     22                     23                     24
                      A                      A                      A
 Frequencies --   1179.0024              1201.9425              1251.7692
 Red. masses --      2.0321                 1.9276                 1.2550
 Frc consts  --      1.6643                 1.6407                 1.1586
 IR Inten    --      5.5334                 0.7138                 1.2945

                     25                     26                     27
                      A                      A                      A
 Frequencies --   1300.6303              1323.6795              1379.5124
 Red. masses --      1.2926                 1.1979                 1.3598
 Frc consts  --      1.2883                 1.2366                 1.5246
 IR Inten    --      2.9094                 1.3665                 1.1890

                     28                     29                     30
                      A                      A                      A
 Frequencies --   1394.3996              1405.1393              1437.3335
 Red. masses --      1.3583                 1.5149                 1.2817
 Frc consts  --      1.5561                 1.7623                 1.5601
 IR Inten    --      2.1687                 0.0113                 5.7982

                     31                     32                     33
                      A                      A                      A
 Frequencies --   1441.8104              1486.3766              1495.8807
 Red. masses --      1.2272                 1.1449                 1.1139
 Frc consts  --      1.5031                 1.4903                 1.4685
 IR Inten    --      1.7405                 1.7242                 0.2248

                     34                     35                     36
                      A                      A                      A
 Frequencies --   1515.1368              1526.2660              1529.3883
 Red. masses --      1.0674                 1.0459                 1.0520
 Frc consts  --      1.4437                 1.4355                 1.4497
 IR Inten    --      0.1496                 7.2557                 2.2531

                     37                     38                     39
                      A                      A                      A
 Frequencies --   1535.9515              1541.1858              2931.3291
 Red. masses --      1.0618                 1.0493                 1.0720
 Frc consts  --      1.4758                 1.4685                 5.4273
 IR Inten    --      7.1583                 2.3749                36.6085

                     40                     41                     42
                      A                      A                      A
 Frequencies --   2994.2932              3017.7608              3032.6410
 Red. masses --      1.0816                 1.0613                 1.0810
 Frc consts  --      5.7133                 5.6947                 5.8576
 IR Inten    --     11.3690                29.7766                24.7095

                     43                     44                     45
                      A                      A                      A
 Frequencies --   3039.9000              3044.5159              3052.5658
 Red. masses --      1.0439                 1.0400                 1.0980
 Frc consts  --      5.6835                 5.6798                 6.0281
 IR Inten    --     27.2136                26.2566                46.4868

                     46                     47                     48
                      A                      A                      A
 Frequencies --   3104.0298              3106.5254              3115.1288
 Red. masses --      1.0976                 1.1014                 1.1023
 Frc consts  --      6.2309                 6.2623                 6.3022
 IR Inten    --     28.4921                51.7431                47.6661

                     49                     50                     51
                      A                      A                      A
 Frequencies --   3123.3187              3158.5391              3256.3480
 Red. masses --      1.1011                 1.0514                 1.1177
 Frc consts  --      6.3286                 6.1802                 6.9826
 IR Inten    --     32.7983                18.5432                19.9395

 - Thermochemistry -
 -------------------
 Temperature   298.150 Kelvin.  Pressure   1.00000 Atm.
 Atom     1 has atomic number  6 and mass  12.00000

 Molecular mass:    85.10173 amu.
 Principal axes and moments of inertia in atomic units:
                           1         2         3
     Eigenvalues --   270.49161 948.785251102.41479
           X            1.00000   0.00128   0.00240
           Y           -0.00126   0.99997  -0.00734
           Z           -0.00241   0.00734   0.99997
 This molecule is an asymmetric top.
 Rotational symmetry number  1.
 Rotational temperatures (Kelvin)      0.32021     0.09129     0.07857
 Rotational constants (GHZ):           6.67208     1.90216     1.63708
 Zero-point vibrational energy     457933.0 (Joules/Mol)
                                  109.44861 (Kcal/Mol)
 Warning -- explicit consideration of  11 degrees of freedom as
           vibrations may cause significant error
 Vibrational temperatures:    127.62   164.14   173.92   292.62   314.05
          (Kelvin)            377.55   432.77   555.32   620.59   635.64
                              709.57  1114.45  1179.97  1191.09  1297.96
                             1391.99  1437.73  1458.31  1508.91  1570.75
                             1628.47  1696.32  1729.33  1801.01  1871.31
                             1904.48  1984.81  2006.23  2021.68  2068.00
                             2074.44  2138.56  2152.24  2179.94  2195.95
                             2200.45  2209.89  2217.42  4217.52  4308.11
                             4341.88  4363.29  4373.73  4380.37  4391.96
                             4466.00  4469.59  4481.97  4493.75  4544.43
                             4685.15

 Zero-point correction=                           0.174417 (Hartree/Particle)
 Thermal correction to Energy=                    0.183102
 Thermal correction to Enthalpy=                  0.184047
 Thermal correction to Gibbs Free Energy=         0.141384
 Sum of electronic and zero-point Energies=           -236.237253
 Sum of electronic and thermal Energies=              -236.228568
 Sum of electronic and thermal Enthalpies=            -236.227624
 Sum of electronic and thermal Free Energies=         -236.270286

                     E (Thermal)             CV                S
                      KCal/Mol        Cal/Mol-Kelvin    Cal/Mol-Kelvin
 Total                  114.898             30.719             89.791
 Electronic               0.000              0.000              1.377
 Translational            0.889              2.981             39.237
 Rotational               0.889              2.981             27.139
 Vibrational            113.121             24.758             22.037
 Vibration     1          0.602              1.957              3.689
 Vibration     2          0.607              1.938              3.198
 Vibration     3          0.609              1.932              3.086
 Vibration     4          0.639              1.835              2.102
 Vibration     5          0.646              1.813              1.973
 Vibration     6          0.670              1.742              1.646
 Vibration     7          0.693              1.672              1.412
 Vibration     8          0.755              1.500              1.016
 Vibration     9          0.792              1.402              0.854
 Vibration    10          0.802              1.379              0.821
 Vibration    11          0.849              1.265              0.675

 Optimization completed on the basis of negligible forces.
    -- Stationary point found.
 Normal termination of Gaussian 09 at Sat Nov  7 02:22:28 2015.
