 Gaussian 09, Revision D.01,
 Gaussian 09:  ES64L-G09RevD.01 24-Apr-2013

 ----------------------------------------------
 #p B3LYP/6-31G(d) opt=tight int=ultrafine freq
 ----------------------------------------------

 ---------------------------------------------
 using B3LYP/6-31G(d) to do opt and freq calc.
 ---------------------------------------------
 Symbolic Z-matrix:
 Charge =  0 Multiplicity = 2

 SCF Done:  E(UB3LYP) =  -236.400285960     A.U. after   14 cycles
 SCF Done:  E(UB3LYP) =  -236.408070326     A.U. after   13 cycles
 SCF Done:  E(UB3LYP) =  -236.409869653     A.U. after   13 cycles
 SCF Done:  E(UB3LYP) =  -236.409989514     A.U. after   11 cycles
 SCF Done:  E(UB3LYP) =  -236.410015325     A.U. after    9 cycles
 SCF Done:  E(UB3LYP) =  -236.410020955     A.U. after    8 cycles
 SCF Done:  E(UB3LYP) =  -236.410021301     A.U. after    7 cycles
 SCF Done:  E(UB3LYP) =  -236.410021325     A.U. after    6 cycles
 SCF Done:  E(UB3LYP) =  -236.410021326     A.U. after    4 cycles
 Optimization completed.
    -- Stationary point found.
 Normal termination of Gaussian 09 at Sat Nov  7 02:20:51 2015.

 --------------------------------------------------------------------
 #P Geom=AllCheck Guess=TCheck SCRF=Check GenChk UB3LYP/6-31G(d) Freq
 --------------------------------------------------------------------

 Structure from the checkpoint file:  "/state/partition1/Gau-25930.chk"
 ---------------------------------------------
 using B3LYP/6-31G(d) to do opt and freq calc.
 ---------------------------------------------
 Charge =  0 Multiplicity = 2

                         Standard orientation:
 ---------------------------------------------------------------------
 Center     Atomic      Atomic             Coordinates (Angstroms)
 Number     Number       Type             X           Y           Z
 ---------------------------------------------------------------------
      1          6           0        1.607523   -0.000003   -1.033606
      2          1           0        1.950574    0.929080   -1.481403
      3          1           0        1.950571   -0.929087   -1.481402
      4          6           0        0.486427    0.000000   -0.032598
      5          6           0       -0.863036    0.000003   -0.827380
      6          1           0       -0.865944   -0.877352   -1.488295
      7          1           0       -0.865944    0.877360   -1.488291
      8          6           0       -2.153729    0.000001    0.004429
      9          1           0       -2.230911    0.885308    0.644936
     10          1           0       -3.027080    0.000001   -0.658308
     11          1           0       -2.230910   -0.885309    0.644933
     12          6           0        0.592421   -1.262443    0.849753
     13          1           0       -0.191172   -1.289316    1.614874
     14          1           0        0.504477   -2.173940    0.245303
     15          1           0        1.560401   -1.293500    1.362687
     16          6           0        0.592427    1.262442    0.849753
     17          1           0        1.560408    1.293496    1.362685
     18          1           0        0.504485    2.173940    0.245304
     19          1           0       -0.191164    1.289318    1.614876
 ---------------------------------------------------------------------

 SCF Done:  E(UB3LYP) =  -236.410021326     A.U. after    1 cycles

 The electronic state is 2-A.
 Alpha  occ. eigenvalues --  -10.19540 -10.18053 -10.17840 -10.17146 -10.16913
 Alpha  occ. eigenvalues --  -10.16912  -0.81863  -0.73180  -0.67963  -0.67076
 Alpha  occ. eigenvalues --   -0.61536  -0.52366  -0.45410  -0.45310  -0.42809
 Alpha  occ. eigenvalues --   -0.42754  -0.38218  -0.37535  -0.37491  -0.36641
 Alpha  occ. eigenvalues --   -0.34269  -0.32349  -0.31669  -0.31401  -0.19561
 Alpha virt. eigenvalues --    0.08288   0.12853   0.13481   0.13531   0.14841
 Alpha virt. eigenvalues --    0.15472   0.16649   0.17260   0.17468   0.19935
 Alpha virt. eigenvalues --    0.20253   0.22059   0.22456   0.24330   0.25101

  Beta  occ. eigenvalues --  -10.19620 -10.17710 -10.17112 -10.16880 -10.16879
  Beta  occ. eigenvalues --  -10.16673  -0.81296  -0.72854  -0.67905  -0.65202
  Beta  occ. eigenvalues --   -0.60400  -0.51946  -0.45172  -0.44977  -0.42543
  Beta  occ. eigenvalues --   -0.42372  -0.38096  -0.37406  -0.37147  -0.36393
  Beta  occ. eigenvalues --   -0.34212  -0.31703  -0.31316  -0.31048
  Beta virt. eigenvalues --   -0.03716   0.08410   0.13183   0.13553   0.14155
  Beta virt. eigenvalues --    0.15034   0.15550   0.17059   0.17376   0.17658
  Beta virt. eigenvalues --    0.20209   0.20358   0.22146   0.22523   0.24421

 Mulliken charges and spin densities:
               1          2
     1  C   -0.314661   1.088313
     2  H    0.135216  -0.050417
     3  H    0.135216  -0.050417
     4  C    0.106800  -0.067972
     5  C   -0.240556   0.040836
     6  H    0.128059  -0.000740
     7  H    0.128059  -0.000740
     8  C   -0.453309   0.014654
     9  H    0.146152  -0.000556
    10  H    0.143233   0.003283
    11  H    0.146152  -0.000556
    12  C   -0.452547   0.009754
    13  H    0.141503   0.002274
    14  H    0.136897  -0.000742
    15  H    0.143966   0.000871
    16  C   -0.452546   0.009754
    17  H    0.143966   0.000871
    18  H    0.136897  -0.000742
    19  H    0.141503   0.002274
 Sum of Mulliken charges =   0.00000   1.00000

 Dipole moment (field-independent basis, Debye):
    X=             -0.2519    Y=              0.0000    Z=             -0.0351  Tot=              0.2543
 Quadrupole moment (field-independent basis, Debye-Ang):
   XX=            -41.5884   YY=            -40.2552   ZZ=            -40.8757
   XY=              0.0000   XZ=             -0.1632   YZ=              0.0000

  Exact polarizability:  67.159   0.000  61.797  -2.289   0.000  59.690
 Approx polarizability:  85.304   0.000  84.563  -3.367   0.000  81.574

                      1                      2                      3
                      A                      A                      A
 Frequencies --     87.5666               119.8593               213.5326
 Red. masses --      1.6927                 1.0183                 1.0412
 Frc consts  --      0.0076                 0.0086                 0.0280
 IR Inten    --      0.0007                 0.5891                 0.0085

                      4                      5                      6
                      A                      A                      A
 Frequencies --    249.8139               267.7724               276.9182
 Red. masses --      2.2325                 1.0644                 1.1736
 Frc consts  --      0.0821                 0.0450                 0.0530
 IR Inten    --      0.7591                 0.0148                 0.0000

                      7                      8                      9
                      A                      A                      A
 Frequencies --    331.0070               339.4872               380.1048
 Red. masses --      2.1414                 1.9721                 1.9059
 Frc consts  --      0.1382                 0.1339                 0.1622
 IR Inten    --      0.0016                 3.3243                 3.7065

                     10                     11                     12
                      A                      A                      A
 Frequencies --    417.1079               481.9315               529.3339
 Red. masses --      1.9876                 2.4084                 2.0606
 Frc consts  --      0.2037                 0.3296                 0.3402
 IR Inten    --      0.0736                 0.0364                34.3843

                     13                     14                     15
                      A                      A                      A
 Frequencies --    712.1206               788.7251               880.9624
 Red. masses --      3.2225                 1.1756                 2.1778
 Frc consts  --      0.9628                 0.4309                 0.9958
 IR Inten    --      0.5185                 2.5333                 0.7592

                     16                     17                     18
                      A                      A                      A
 Frequencies --    917.5431               961.7051               973.0555
 Red. masses --      1.7044                 1.2516                 1.8179
 Frc consts  --      0.8454                 0.6820                 1.0142
 IR Inten    --      0.0171                 0.2473                 4.1620

                     19                     20                     21
                      A                      A                      A
 Frequencies --   1010.2367              1022.9354              1081.6644
 Red. masses --      1.2565                 2.4763                 1.6479
 Frc consts  --      0.7555                 1.5267                 1.1360
 IR Inten    --      0.5764                 1.5169                 3.0517

                     22                     23                     24
                      A                      A                      A
 Frequencies --   1105.0982              1208.0892              1252.6644
 Red. masses --      1.4242                 2.2061                 2.1130
 Frc consts  --      1.0247                 1.8970                 1.9535
 IR Inten    --      0.0023                 7.2528                 0.4137

                     25                     26                     27
                      A                      A                      A
 Frequencies --   1269.5191              1348.0726              1378.1863
 Red. masses --      2.8250                 1.3198                 1.3838
 Frc consts  --      2.6825                 1.4132                 1.5486
 IR Inten    --      3.9786                 0.2019                 2.6507

                     28                     29                     30
                      A                      A                      A
 Frequencies --   1423.8526              1433.5701              1443.6792
 Red. masses --      1.2396                 1.2496                 1.2113
 Frc consts  --      1.4807                 1.5131                 1.4875
 IR Inten    --      4.2212                 3.4465                 2.7725

                     31                     32                     33
                      A                      A                      A
 Frequencies --   1484.5713              1510.6315              1514.9971
 Red. masses --      1.1597                 1.0739                 1.0457
 Frc consts  --      1.5059                 1.4439                 1.4141
 IR Inten    --      0.5400                 0.0225                 0.0008

                     34                     35                     36
                      A                      A                      A
 Frequencies --   1518.7711              1535.7164              1537.7561
 Red. masses --      1.0477                 1.0633                 1.0538
 Frc consts  --      1.4238                 1.4774                 1.4682
 IR Inten    --      4.6431                 0.9674                10.4591

                     37                     38                     39
                      A                      A                      A
 Frequencies --   1539.3761              1541.3878              3030.3991
 Red. masses --      1.0465                 1.0543                 1.0590
 Frc consts  --      1.4611                 1.4759                 5.7298
 IR Inten    --      1.7079                 5.3065                34.4325

                     40                     41                     42
                      A                      A                      A
 Frequencies --   3040.2033              3044.9887              3051.9741
 Red. masses --      1.0352                 1.0365                 1.0367
 Frc consts  --      5.6377                 5.6625                 5.6891
 IR Inten    --     37.2701                 5.6161                21.8492

                     43                     44                     45
                      A                      A                      A
 Frequencies --   3063.7951              3106.2737              3107.4762
 Red. masses --      1.1037                 1.1021                 1.1012
 Frc consts  --      6.1042                 6.2652                 6.2654
 IR Inten    --     20.4127                20.1305                10.3146

                     46                     47                     48
                      A                      A                      A
 Frequencies --   3111.0800              3112.3307              3120.7028
 Red. masses --      1.1009                 1.1029                 1.1008
 Frc consts  --      6.2779                 6.2942                 6.3164
 IR Inten    --     87.1897                13.0301                53.1303

                     49                     50                     51
                      A                      A                      A
 Frequencies --   3125.1767              3150.1629              3248.2344
 Red. masses --      1.1021                 1.0507                 1.1182
 Frc consts  --      6.3419                 6.1433                 6.9512
 IR Inten    --     32.4283                19.5147                19.5783

 - Thermochemistry -
 -------------------
 Temperature   298.150 Kelvin.  Pressure   1.00000 Atm.
 Atom     1 has atomic number  6 and mass  12.00000

 Molecular mass:    85.10173 amu.
 Principal axes and moments of inertia in atomic units:
                           1         2         3
     Eigenvalues --   417.87438 708.61500 714.77368
           X            1.00000   0.00000  -0.00268
           Y            0.00000   1.00000   0.00000
           Z            0.00268   0.00000   1.00000
 This molecule is an asymmetric top.
 Rotational symmetry number  1.
 Rotational temperatures (Kelvin)      0.20727     0.12223     0.12118
 Rotational constants (GHZ):           4.31886     2.54686     2.52491
 Zero-point vibrational energy     456986.2 (Joules/Mol)
                                  109.22231 (Kcal/Mol)
 Warning -- explicit consideration of  12 degrees of freedom as
           vibrations may cause significant error
 Vibrational temperatures:    125.99   172.45   307.23   359.43   385.26
          (Kelvin)            398.42   476.24   488.45   546.89   600.12
                              693.39   761.59  1024.58  1134.80  1267.51
                             1320.14  1383.68  1400.01  1453.50  1471.77
                             1556.27  1589.99  1738.17  1802.30  1826.55
                             1939.57  1982.90  2048.60  2062.59  2077.13
                             2135.96  2173.46  2179.74  2185.17  2209.55
                             2212.49  2214.82  2217.71  4360.06  4374.17
                             4381.05  4391.10  4408.11  4469.23  4470.96
                             4476.14  4477.94  4489.99  4496.43  4532.38
                             4673.48

 Zero-point correction=                           0.174057 (Hartree/Particle)
 Thermal correction to Energy=                    0.182720
 Thermal correction to Enthalpy=                  0.183664
 Thermal correction to Gibbs Free Energy=         0.141625
 Sum of electronic and zero-point Energies=           -236.235964
 Sum of electronic and thermal Energies=              -236.227301
 Sum of electronic and thermal Enthalpies=            -236.226357
 Sum of electronic and thermal Free Energies=         -236.268396

                     E (Thermal)             CV                S
                      KCal/Mol        Cal/Mol-Kelvin    Cal/Mol-Kelvin
 Total                  114.659             31.728             88.479
 Electronic               0.000              0.000              1.377
 Translational            0.889              2.981             39.237
 Rotational               0.889              2.981             26.851
 Vibrational            112.881             25.767             21.014
 Vibration     1          0.601              1.958              3.714
 Vibration     2          0.609              1.933              3.103
 Vibration     3          0.644              1.820              2.013
 Vibration     4          0.663              1.763              1.732
 Vibration     5          0.673              1.732              1.611
 Vibration     6          0.678              1.716              1.553
 Vibration     7          0.713              1.614              1.255
 Vibration     8          0.719              1.597              1.215
 Vibration     9          0.750              1.513              1.039
 Vibration    10          0.780              1.433              0.902
 Vibration    11          0.838              1.290              0.705
 Vibration    12          0.884              1.185              0.589

 Optimization completed.
    -- Stationary point found.
 Normal termination of Gaussian 09 at Sat Nov  7 02:28:37 2015.
