 Gaussian 09, Revision A.01,
 Gaussian 09:  EM64L-G09RevA.01  8-May-2009

 ----------
 #p PM6 opt
 ----------

 ----------------------------------
 using PM6 to do opt and freq calc.
 ----------------------------------
 Symbolic Z-matrix:
 Charge =  0 Multiplicity = 1

 SCF Done:  E(RPM6) = -0.528880797128E-01 A.U. after   12 cycles
 SCF Done:  E(RPM6) = -0.551514533139E-01 A.U. after   10 cycles
 SCF Done:  E(RPM6) = -0.553395700462E-01 A.U. after   10 cycles
 SCF Done:  E(RPM6) = -0.553951672932E-01 A.U. after   10 cycles
 SCF Done:  E(RPM6) = -0.554203642183E-01 A.U. after   15 cycles
 SCF Done:  E(RPM6) = -0.554292210724E-01 A.U. after   10 cycles
 SCF Done:  E(RPM6) = -0.554334763772E-01 A.U. after   15 cycles
 SCF Done:  E(RPM6) = -0.554350875873E-01 A.U. after    9 cycles
 SCF Done:  E(RPM6) = -0.554352415196E-01 A.U. after   15 cycles
 Optimization completed.
    -- Stationary point found.

                         Standard orientation:
 ---------------------------------------------------------------------
 Center     Atomic      Atomic             Coordinates (Angstroms)
 Number     Number       Type             X           Y           Z
 ---------------------------------------------------------------------
      1          6           0       -2.749863   -0.473388   -0.080497
      2          1           0       -2.359493   -1.408750    0.336609
      3          1           0       -2.876452   -0.625817   -1.158194
      4          1           0       -3.744027   -0.310217    0.349297
      5          6           0       -1.819790    0.701841    0.213828
      6          1           0       -2.265517    1.632780   -0.189608
      7          1           0       -1.746349    0.855138    1.308304
      8          6           0       -0.416719    0.518197   -0.382695
      9          1           0        0.111720    1.491610   -0.379448
     10          1           0       -0.496160    0.224403   -1.446815
     11          6           0        0.416719   -0.518196    0.382696
     12          1           0       -0.111720   -1.491609    0.379450
     13          1           0        0.496160   -0.224402    1.446816
     14          6           0        1.819789   -0.701842   -0.213827
     15          1           0        1.746347   -0.855139   -1.308304
     16          1           0        2.265517   -1.632780    0.189608
     17          6           0        2.749863    0.473387    0.080496
     18          1           0        2.876455    0.625816    1.158192
     19          1           0        3.744027    0.310216   -0.349299
     20          1           0        2.359493    1.408749   -0.336609
 ---------------------------------------------------------------------

 The electronic state is 1-A.
 Alpha  occ. eigenvalues --   -1.05703  -0.99755  -0.90156  -0.83650  -0.74884
 Alpha  occ. eigenvalues --   -0.71748  -0.58132  -0.56439  -0.55518  -0.51945
 Alpha  occ. eigenvalues --   -0.51306  -0.49177  -0.46462  -0.45032  -0.44830
 Alpha  occ. eigenvalues --   -0.42573  -0.41504  -0.40832  -0.40145
 Alpha virt. eigenvalues --    0.15392   0.16522   0.16701   0.17286   0.18099
 Alpha virt. eigenvalues --    0.21070   0.21261   0.21369   0.22221   0.22270
 Alpha virt. eigenvalues --    0.22835   0.23164   0.23295   0.24200   0.24505

 Mulliken atomic charges:
              1
     1  C   -0.459258
     2  H    0.146489
     3  H    0.145513
     4  H    0.141391
     5  C   -0.223627
     6  H    0.122549
     7  H    0.126462
     8  C   -0.259515
     9  H    0.128464
    10  H    0.131533
    11  C   -0.259515
    12  H    0.128464
    13  H    0.131533
    14  C   -0.223627
    15  H    0.126462
    16  H    0.122549
    17  C   -0.459258
    18  H    0.145513
    19  H    0.141391
    20  H    0.146489
 Sum of Mulliken atomic charges =   0.00000

 Dipole moment (field-independent basis, Debye):
    X=              0.0000    Y=              0.0000    Z=              0.0000  Tot=              0.0000
 N-N= 1.639371682435D+02 E-N=-2.488862341604D+02  KE=-5.610314706882D+01
 Leave Link  601 at Mon Sep 14 19:13:32 2015, MaxMem=  402653184 cpu:       0.0
 (Enter /share/apps/g09/l9999.exe)
 1\1\GINC-COMPUTE-0-5\FOpt\RPM6\ZDO\C6H14\HETANJIN\14-Sep-2015\0\\#p PM
 6 opt\\using PM6 to do opt and freq calc.\\0,1\C,1.7053119966,2.097534
 9041,0.7658676324\H,1.9162890768,1.2100036329,0.158377181\H,1.81560424
 93,1.8061942338,1.8164134002\H,2.4801049,2.8397450493,0.5455760658\C,0
 .3107977512,2.6518615421,0.4814759881\H,0.1495447473,3.5673374531,1.08
 47848823\H,0.2457362809,2.9750494093,-0.57592127\C,-0.8072416307,1.645
 1473031,0.7891866587\H,-1.7772964694,2.1781310541,0.8305932477\H,-0.65

 Normal termination of Gaussian 09 at Mon Sep 14 19:13:33 2015.
